 vasp.5.3.5 31Mar14 (build May 02 2014 07:30:07) complex                        
  
 executed on             LinuxIFC date 2015.08.18  10:40:29
 running on   81 total cores
 distrk:  each k-point on   81 cores,    1 groups
 distr:  one band on NCORES_PER_BAND=   9 cores,    9 groups


--------------------------------------------------------------------------------------------------------


 INCAR:
 POTCAR:    PAW C 22Mar2012                       
 POTCAR:    PAW N 21Mar2012                       
 POTCAR:    PAW H 06May1998                       
 POTCAR:    PAW Pb_d 30Apr1998                    
 POTCAR:    PAW I 03Oct2001                       
 POTCAR:    PAW C 22Mar2012                       
   VRHFIN =C: s2p2                                                              
   LEXCH  = CA                                                                  
   EATOM  =   146.6860 eV,   10.7811 Ry                                         
                                                                                
   TITEL  = PAW C 22Mar2012                                                     
   LULTRA =        F    use ultrasoft PP ?                                      
   IUNSCR =        1    unscreen: 0-lin 1-nonlin 2-no                           
   RPACOR =    1.200    partial core radius                                     
   POMASS =   12.011; ZVAL   =    4.000    mass and valenz                      
   RCORE  =    1.500    outmost cutoff radius                                   
   RWIGS  =    1.630; RWIGS  =    0.863    wigner-seitz radius (au A)           
   ENMAX  =  400.000; ENMIN  =  300.000 eV                                      
   ICORE  =        2    local potential                                         
   LCOR   =        T    correct aug charges                                     
   LPAW   =        T    paw PP                                                  
   EAUG   =  644.873                                                            
   DEXC   =    0.000                                                            
   RMAX   =    1.529    core radius for proj-oper                               
   RAUG   =    1.300    factor for augmentation sphere                          
   RDEP   =    1.501    radius for radial grids                                 
   RDEPT  =    1.300    core radius for aug-charge                              
                                                                                
   Atomic configuration                                                         
    4 entries                                                                   
     n  l   j            E        occ.                                          
     1  0  0.50      -270.6511   2.0000                                         
     2  0  0.50       -13.6383   2.0000                                         
     2  1  0.50        -5.4212   2.0000                                         
     3  2  1.50        -5.4423   0.0000                                         
   Description                                                                  
     l       E           TYP  RCUT    TYP  RCUT                                 
     0    -13.6382841     23  1.200                                             
     0     -7.9195854     23  1.200                                             
     1     -5.4211532     23  1.500                                             
     1     34.0145650     23  1.500                                             
     2     -5.4423304      7  1.500                                             
  local pseudopotential read in
  partial core-charges read in
  partial kinetic energy density read in
  kinetic energy density of atom read in
  atomic valenz-charges read in
  non local Contribution for L=           0  read in
    real space projection operators read in
  non local Contribution for L=           0  read in
    real space projection operators read in
  non local Contribution for L=           1  read in
    real space projection operators read in
  non local Contribution for L=           1  read in
    real space projection operators read in
    PAW grid and wavefunctions read in
 
   number of l-projection  operators is LMAX  =           4
   number of lm-projection operators is LMMAX =           8
 
 POTCAR:    PAW N 21Mar2012                       
   VRHFIN =N: s2p3                                                              
   LEXCH  = CA                                                                  
   EATOM  =   263.8737 eV,   19.3942 Ry                                         
                                                                                
   TITEL  = PAW N 21Mar2012                                                     
   LULTRA =        F    use ultrasoft PP ?                                      
   IUNSCR =        1    unscreen: 0-lin 1-nonlin 2-no                           
   RPACOR =    1.200    partial core radius                                     
   POMASS =   14.001; ZVAL   =    5.000    mass and valenz                      
   RCORE  =    1.500    outmost cutoff radius                                   
   RWIGS  =    1.400; RWIGS  =    0.741    wigner-seitz radius (au A)           
   ENMAX  =  400.000; ENMIN  =  300.000 eV                                      
   ICORE  =        2    local potential                                         
   LCOR   =        T    correct aug charges                                     
   LPAW   =        T    paw PP                                                  
   EAUG   =  555.011                                                            
   DEXC   =    0.000                                                            
   RMAX   =    1.529    core radius for proj-oper                               
   RAUG   =    1.300    factor for augmentation sphere                          
   RDEP   =    1.514    radius for radial grids                                 
   RDEPT  =    1.349    core radius for aug-charge                              
                                                                                
   Atomic configuration                                                         
    4 entries                                                                   
     n  l   j            E        occ.                                          
     1  0  0.50      -381.2515   2.0000                                         
     2  0  0.50       -18.4129   2.0000                                         
     2  1  0.50        -7.2430   3.0000                                         
     3  2  1.50        -8.1635   0.0000                                         
   Description                                                                  
     l       E           TYP  RCUT    TYP  RCUT                                 
     0    -18.4129017     23  1.200                                             
     0    -13.1193851     23  1.200                                             
     1     -7.2430100     23  1.500                                             
     1      9.5240782     23  1.500                                             
     2     -8.1634956      7  1.500                                             
  local pseudopotential read in
  partial core-charges read in
  partial kinetic energy density read in
  kinetic energy density of atom read in
  atomic valenz-charges read in
  non local Contribution for L=           0  read in
    real space projection operators read in
  non local Contribution for L=           0  read in
    real space projection operators read in
  non local Contribution for L=           1  read in
    real space projection operators read in
  non local Contribution for L=           1  read in
    real space projection operators read in
    PAW grid and wavefunctions read in
 
   number of l-projection  operators is LMAX  =           4
   number of lm-projection operators is LMMAX =           8
 
 POTCAR:    PAW H 06May1998                       
   VRHFIN =H: ultrasoft test                                                    
   LEXCH  = CA                                                                  
   EATOM  =    12.1334 eV,    0.8918 Ry                                         
                                                                                
   TITEL  = PAW H 06May1998                                                     
   LULTRA =        F    use ultrasoft PP ?                                      
   IUNSCR =        0    unscreen: 0-lin 1-nonlin 2-no                           
   RPACOR =    0.000    partial core radius                                     
   POMASS =    1.000; ZVAL   =    1.000    mass and valenz                      
   RCORE  =    1.100    outmost cutoff radius                                   
   RWIGS  =    0.700; RWIGS  =    0.370    wigner-seitz radius (au A)           
   ENMAX  =  250.000; ENMIN  =  200.000 eV                                      
   RCLOC  =    0.701    cutoff for local pot                                    
   LCOR   =        T    correct aug charges                                     
   LPAW   =        T    paw PP                                                  
   EAUG   =  400.000                                                            
   RMAX   =    1.123    core radius for proj-oper                               
   RAUG   =    1.200    factor for augmentation sphere                          
   RDEP   =    1.112    radius for radial grids                                 
   RDEPT  =    0.926    core radius for aug-charge                              
                                                                                
   Atomic configuration                                                         
    2 entries                                                                   
     n  l   j            E        occ.                                          
     1  0  0.50        -6.3581   1.0000                                         
     2  1  0.50        -3.4015   0.0000                                         
   Description                                                                  
     l       E           TYP  RCUT    TYP  RCUT                                 
     0     -6.3581322     23  1.100                                             
     0      6.8029130     23  1.100                                             
     1     -4.0817478     23  1.100                                             
  local pseudopotential read in
  atomic valenz-charges read in
  non local Contribution for L=           0  read in
    real space projection operators read in
  non local Contribution for L=           0  read in
    real space projection operators read in
  non local Contribution for L=           1  read in
    real space projection operators read in
    PAW grid and wavefunctions read in
 
   number of l-projection  operators is LMAX  =           3
   number of lm-projection operators is LMMAX =           5
 
 POTCAR:    PAW Pb_d 30Apr1998                    
   VRHFIN =Pb:                                                                  
   LEXCH  = CA                                                                  
   EATOM  =  1665.7987 eV,  122.4327 Ry                                         
                                                                                
   TITEL  = PAW Pb_d 30Apr1998                                                  
   LULTRA =        F    use ultrasoft PP ?                                      
   IUNSCR =        1    unscreen: 0-lin 1-nonlin 2-no                           
   RPACOR =    2.200    partial core radius                                     
   POMASS =  207.200; ZVAL   =   14.000    mass and valenz                      
   RCORE  =    2.500    outmost cutoff radius                                   
   RWIGS  =    3.260; RWIGS  =    1.725    wigner-seitz radius (au A)           
   ENMAX  =  237.817; ENMIN  =  178.363 eV                                      
   ICORE  =        3    local potential                                         
   LCOR   =        T    correct aug charges                                     
   LPAW   =        T    paw PP                                                  
   EAUG   =  391.914                                                            
   DEXC   =    0.000                                                            
   RMAX   =    2.565    core radius for proj-oper                               
   RAUG   =    1.300    factor for augmentation sphere                          
   RDEP   =    2.643    radius for radial grids                                 
   RDEPT  =    2.092    core radius for aug-charge                              
                                                                                
   Atomic configuration                                                         
   16 entries                                                                   
     n  l   j            E        occ.                                          
     1  0  0.50    -87455.3954   2.0000                                         
     2  0  0.50    -15656.5720   2.0000                                         
     2  1  1.50    -13450.1117   6.0000                                         
     3  0  0.50     -3760.6466   2.0000                                         
     3  1  1.50     -3126.9604   6.0000                                         
     3  2  2.50     -2479.1840  10.0000                                         
     4  0  0.50      -850.7174   2.0000                                         
     4  1  1.50      -642.6418   6.0000                                         
     4  2  2.50      -401.3256  10.0000                                         
     4  3  3.50      -133.7163  14.0000                                         
     5  0  0.50      -143.6556   2.0000                                         
     5  1  1.50       -85.6774   6.0000                                         
     5  2  2.50       -21.3441  10.0000                                         
     6  0  0.50       -12.2637   2.0000                                         
     6  1  1.50        -3.7095   2.0000                                         
     5  3  2.50        -2.7212   0.0000                                         
   Description                                                                  
     l       E           TYP  RCUT    TYP  RCUT                                 
     2    -21.3440979     23  2.500                                             
     2      1.3605826     23  2.500                                             
     0    -12.2637197     23  2.500                                             
     0     13.6058260     23  2.500                                             
     1     -3.7094521     23  2.500                                             
     1     13.6058260     23  2.500                                             
     3     -1.3605826      7  2.500                                             
  local pseudopotential read in
  partial core-charges read in
  partial kinetic energy density read in
  atomic valenz-charges read in
  non local Contribution for L=           2  read in
    real space projection operators read in
  non local Contribution for L=           2  read in
    real space projection operators read in
  non local Contribution for L=           0  read in
    real space projection operators read in
  non local Contribution for L=           0  read in
    real space projection operators read in
  non local Contribution for L=           1  read in
    real space projection operators read in
  non local Contribution for L=           1  read in
    real space projection operators read in
    PAW grid and wavefunctions read in
 
   number of l-projection  operators is LMAX  =           6
   number of lm-projection operators is LMMAX =          18
 
 POTCAR:    PAW I 03Oct2001                       
   VRHFIN =I : s2p5                                                             
   LEXCH  = CA                                                                  
   EATOM  =   318.2436 eV,   23.3902 Ry                                         
                                                                                
   TITEL  = PAW I 03Oct2001                                                     
   LULTRA =        F    use ultrasoft PP ?                                      
   IUNSCR =        1    unscreen: 0-lin 1-nonlin 2-no                           
   RPACOR =    2.200    partial core radius                                     
   POMASS =  126.904; ZVAL   =    7.000    mass and valenz                      
   RCORE  =    2.300    outmost cutoff radius                                   
   RWIGS  =    2.810; RWIGS  =    1.487    wigner-seitz radius (au A)           
   ENMAX  =  175.712; ENMIN  =  131.784 eV                                      
   ICORE  =        3    local potential                                         
   LCOR   =        T    correct aug charges                                     
   LPAW   =        T    paw PP                                                  
   EAUG   =  370.139                                                            
   DEXC   =    0.000                                                            
   RMAX   =    2.359    core radius for proj-oper                               
   RAUG   =    1.300    factor for augmentation sphere                          
   RDEP   =    2.392    radius for radial grids                                 
   RDEPT  =    2.170    core radius for aug-charge                              
                                                                                
   Atomic configuration                                                         
   13 entries                                                                   
     n  l   j            E        occ.                                          
     1  0  0.50    -32782.2723   2.0000                                         
     2  0  0.50     -5071.6432   2.0000                                         
     2  1  1.50     -4559.2217   6.0000                                         
     3  0  0.50     -1023.7010   2.0000                                         
     3  1  1.50      -856.9928   6.0000                                         
     3  2  2.50      -605.7196  10.0000                                         
     4  0  0.50      -179.5701   2.0000                                         
     4  1  1.50      -127.1068   6.0000                                         
     4  2  2.50       -50.3864  10.0000                                         
     5  0  0.50       -17.6026   2.0000                                         
     5  1  0.50        -7.2430   5.0000                                         
     5  2  1.50        -6.8029   0.0000                                         
     4  3  2.50        -6.8029   0.0000                                         
   Description                                                                  
     l       E           TYP  RCUT    TYP  RCUT                                 
     0    -17.6026160     23  2.300                                             
     0    -18.9631986     23  2.300                                             
     1     -7.2430093     23  2.300                                             
     1     -4.3730304     23  2.300                                             
     2     -6.8029130     23  2.300                                             
     3     -1.3605826     23  2.300                                             
  local pseudopotential read in
  partial core-charges read in
  partial kinetic energy density read in
  atomic valenz-charges read in
  non local Contribution for L=           0  read in
    real space projection operators read in
  non local Contribution for L=           0  read in
    real space projection operators read in
  non local Contribution for L=           1  read in
    real space projection operators read in
  non local Contribution for L=           1  read in
    real space projection operators read in
  non local Contribution for L=           2  read in
    real space projection operators read in
    PAW grid and wavefunctions read in
 
   number of l-projection  operators is LMAX  =           5
   number of lm-projection operators is LMMAX =          13
 
 Optimization of the real space projectors (new method)

 maximal supplied QI-value         = 25.13
 optimisation between [QCUT,QGAM] = [ 10.05, 20.36] = [ 28.30,116.06] Ry 
 Optimized for a Real-space Cutoff    1.30 Angstroem

   l    n(q)    QCUT    max X(q) W(low)/X(q) W(high)/X(q)  e(spline) 
   0      8    10.053   112.725    0.49E-03    0.72E-03    0.18E-06
   0      8    10.053    84.246    0.49E-03    0.71E-03    0.18E-06
   1      7    10.053     4.395    0.34E-03    0.30E-03    0.19E-06
   1      7    10.053     2.668    0.25E-03    0.19E-03    0.21E-06
 Optimization of the real space projectors (new method)

 maximal supplied QI-value         = 25.13
 optimisation between [QCUT,QGAM] = [ 10.05, 20.36] = [ 28.30,116.06] Ry 
 Optimized for a Real-space Cutoff    1.46 Angstroem

   l    n(q)    QCUT    max X(q) W(low)/X(q) W(high)/X(q)  e(spline) 
   0      9    10.053    76.583    0.24E-03    0.22E-03    0.37E-06
   0      9    10.053    63.337    0.23E-03    0.22E-03    0.37E-06
   1      8    10.053     6.744    0.33E-03    0.11E-02    0.13E-05
   1      8    10.053     5.214    0.31E-03    0.98E-03    0.13E-05
 Optimization of the real space projectors (new method)

 maximal supplied QI-value         = 34.20
 optimisation between [QCUT,QGAM] = [  9.92, 20.18] = [ 27.55,114.04] Ry 
 Optimized for a Real-space Cutoff    1.26 Angstroem

   l    n(q)    QCUT    max X(q) W(low)/X(q) W(high)/X(q)  e(spline) 
   0      8     9.919    20.415    0.48E-03    0.21E-03    0.30E-06
   0      8     9.919    12.552    0.46E-03    0.21E-03    0.28E-06
   1      7     9.919     4.672    0.17E-03    0.75E-03    0.30E-06
 Optimization of the real space projectors (new method)

 maximal supplied QI-value         = 15.12
 optimisation between [QCUT,QGAM] = [ 10.13, 20.41] = [ 28.73,116.64] Ry 
 Optimized for a Real-space Cutoff    1.42 Angstroem

   l    n(q)    QCUT    max X(q) W(low)/X(q) W(high)/X(q)  e(spline) 
   2      8    10.129     3.832    0.68E-04    0.20E-03    0.43E-07
   2      8    10.129     8.557    0.31E-03    0.87E-04    0.80E-07
   0      9    10.129    20.058    0.18E-03    0.69E-04    0.52E-07
   0      9    10.129     8.581    0.26E-03    0.10E-03    0.74E-07
   1      8    10.129    32.418    0.10E-03    0.20E-03    0.14E-06
   1      8    10.129    15.589    0.88E-04    0.18E-03    0.13E-06
 Optimization of the real space projectors (new method)

 maximal supplied QI-value         = 16.25
 optimisation between [QCUT,QGAM] = [ 10.24, 20.48] = [ 29.35,117.42] Ry 
 Optimized for a Real-space Cutoff    1.42 Angstroem

   l    n(q)    QCUT    max X(q) W(low)/X(q) W(high)/X(q)  e(spline) 
   0      9    10.239   195.377    0.83E-04    0.12E-03    0.80E-07
   0      9    10.239   191.289    0.80E-04    0.11E-03    0.77E-07
   1      8    10.239   115.174    0.25E-03    0.31E-03    0.74E-07
   1      8    10.239    87.544    0.25E-03    0.30E-03    0.73E-07
   2      8    10.239     4.840    0.44E-04    0.82E-04    0.46E-07
  PAW C 22Mar2012                       :
 energy of atom  1       EATOM= -146.6860
 kinetic energy error for atom=    0.0289 (will be added to EATOM!!)
  PAW N 21Mar2012                       :
 energy of atom  2       EATOM= -263.8737
 kinetic energy error for atom=    0.0726 (will be added to EATOM!!)
  PAW H 06May1998                       :
 energy of atom  3       EATOM=  -12.1334
 kinetic energy error for atom=    0.0088 (will be added to EATOM!!)
  PAW Pb_d 30Apr1998                    :
 energy of atom  4       EATOM=-1665.7987
 kinetic energy error for atom=    0.0069 (will be added to EATOM!!)
  PAW I 03Oct2001                       :
 energy of atom  5       EATOM= -318.2436
 kinetic energy error for atom=    0.0013 (will be added to EATOM!!)
 
 
 POSCAR: MA-Pb-I (Pseudocubic)  2x2x2            
  positions in direct lattice
  velocities in cartesian coordinates
 exchange correlation table for  LEXCH =        2
   RHO(1)=    0.500       N(1)  =     2000
   RHO(2)=  100.500       N(2)  =     4000
 


--------------------------------------------------------------------------------------------------------


 ion  position               nearest neighbor table
   1  0.451  1.000  0.498-  36 1.10  26 1.10  19 1.10  16 1.47
   2  0.451  1.000  0.998-  35 1.10  25 1.10  20 1.10  15 1.47
   3  0.451  0.500  0.498-  34 1.10  28 1.10  17 1.10  14 1.47
   4  0.451  0.500  0.998-  33 1.10  27 1.10  18 1.10  13 1.47
   5  0.951  1.000  0.498-  40 1.10  30 1.10  23 1.10  12 1.47
   6  0.951  1.000  0.998-  39 1.10  29 1.10  24 1.10  11 1.47
   7  0.951  0.500  0.498-  38 1.10  32 1.10  21 1.10  10 1.47
   8  0.951  0.500  0.998-  37 1.10  31 1.10  22 1.10   9 1.47
   9  0.067  0.500  0.013-  44 1.05  50 1.05  59 1.05   8 1.47
  10  0.067  0.500  0.513-  43 1.05  49 1.05  60 1.05   7 1.47
  11  0.067  1.000  0.013-  42 1.05  52 1.05  57 1.05   6 1.47
  12  0.067  1.000  0.513-  41 1.05  51 1.05  58 1.05   5 1.47
  13  0.567  0.500  0.013-  48 1.05  54 1.05  63 1.05   4 1.47
  14  0.567  0.500  0.513-  47 1.05  53 1.05  64 1.05   3 1.47
  15  0.567  1.000  0.013-  46 1.05  56 1.05  61 1.05   2 1.47
  16  0.567  1.000  0.513-  45 1.05  55 1.05  62 1.05   1 1.47
  17  0.432  0.500  0.412-   3 1.10
  18  0.432  0.500  0.912-   4 1.10
  19  0.432  1.000  0.412-   1 1.10
  20  0.432  1.000  0.912-   2 1.10
  21  0.932  0.500  0.412-   7 1.10
  22  0.932  0.500  0.912-   8 1.10
  23  0.932  1.000  0.412-   5 1.10
  24  0.932  1.000  0.912-   6 1.10
  25  0.418  0.072  0.036-   2 1.10
  26  0.418  0.072  0.536-   1 1.10
  27  0.418  0.572  0.036-   4 1.10
  28  0.418  0.572  0.536-   3 1.10
  29  0.918  0.072  0.036-   6 1.10
  30  0.918  0.072  0.536-   5 1.10
  31  0.918  0.572  0.036-   8 1.10
  32  0.918  0.572  0.536-   7 1.10
  33  0.418  0.428  0.036-   4 1.10
  34  0.418  0.428  0.536-   3 1.10
  35  0.418  0.928  0.036-   2 1.10
  36  0.418  0.928  0.536-   1 1.10
  37  0.918  0.428  0.036-   8 1.10
  38  0.918  0.428  0.536-   7 1.10
  39  0.918  0.928  0.036-   6 1.10
  40  0.918  0.928  0.536-   5 1.10
  41  0.103  0.067  0.480-  12 1.05
  42  0.103  0.067  0.980-  11 1.05
  43  0.103  0.567  0.480-  10 1.05
  44  0.103  0.567  0.980-   9 1.05
  45  0.603  0.067  0.480-  16 1.05
  46  0.603  0.067  0.980-  15 1.05
  47  0.603  0.567  0.480-  14 1.05
  48  0.603  0.567  0.980-  13 1.05
  49  0.103  0.432  0.480-  10 1.05
  50  0.103  0.432  0.980-   9 1.05
  51  0.103  0.932  0.480-  12 1.05
  52  0.103  0.932  0.980-  11 1.05
  53  0.603  0.432  0.480-  14 1.05
  54  0.603  0.432  0.980-  13 1.05
  55  0.603  0.932  0.480-  16 1.05
  56  0.603  0.932  0.980-  15 1.05
  57  0.089  1.000  0.094-  11 1.05
  58  0.089  1.000  0.594-  12 1.05
  59  0.089  0.500  0.094-   9 1.05
  60  0.089  0.500  0.594-  10 1.05
  61  0.589  1.000  0.094-  15 1.05
  62  0.589  1.000  0.594-  16 1.05
  63  0.589  0.500  0.094-  13 1.05
  64  0.589  0.500  0.594-  14 1.05
  65  0.241  0.250  0.242-  89 3.06  73 3.12  81 3.15  83 3.15  74 3.23  93 3.27
  66  0.241  0.250  0.742-  90 3.06  74 3.12  82 3.15  84 3.15  73 3.23  94 3.27
  67  0.241  0.750  0.242-  91 3.06  75 3.12  83 3.15  81 3.15  76 3.23  95 3.27
  68  0.241  0.750  0.742-  92 3.06  76 3.12  84 3.15  82 3.15  75 3.23  96 3.27
  69  0.741  0.250  0.242-  93 3.06  77 3.12  85 3.15  87 3.15  78 3.23  89 3.27
  70  0.741  0.250  0.742-  94 3.06  78 3.12  86 3.15  88 3.15  77 3.23  90 3.27
  71  0.741  0.750  0.242-  95 3.06  79 3.12  87 3.15  85 3.15  80 3.23  91 3.27
  72  0.741  0.750  0.742-  96 3.06  80 3.12  88 3.15  86 3.15  79 3.23  92 3.27
  73  0.209  0.250  0.488-  65 3.12  66 3.23
  74  0.209  0.250  0.988-  66 3.12  65 3.23
  75  0.209  0.750  0.488-  67 3.12  68 3.23
  76  0.209  0.750  0.988-  68 3.12  67 3.23
  77  0.709  0.250  0.488-  69 3.12  70 3.23
  78  0.709  0.250  0.988-  70 3.12  69 3.23
  79  0.709  0.750  0.488-  71 3.12  72 3.23
  80  0.709  0.750  0.988-  72 3.12  71 3.23
  81  0.223  0.000  0.253-  65 3.15  67 3.15
  82  0.223  0.000  0.753-  66 3.15  68 3.15
  83  0.223  0.500  0.253-  67 3.15  65 3.15
  84  0.223  0.500  0.753-  68 3.15  66 3.15
  85  0.723  0.000  0.253-  69 3.15  71 3.15
  86  0.723  0.000  0.753-  70 3.15  72 3.15
  87  0.723  0.500  0.253-  71 3.15  69 3.15
  88  0.723  0.500  0.753-  72 3.15  70 3.15
  89  0.483  0.250  0.215-  65 3.06  69 3.27
  90  0.483  0.250  0.715-  66 3.06  70 3.27
  91  0.483  0.750  0.215-  67 3.06  71 3.27
  92  0.483  0.750  0.715-  68 3.06  72 3.27
  93  0.983  0.250  0.215-  69 3.06  65 3.27
  94  0.983  0.250  0.715-  70 3.06  66 3.27
  95  0.983  0.750  0.215-  71 3.06  67 3.27
  96  0.983  0.750  0.715-  72 3.06  68 3.27
 
  LATTYP: Found a simple monoclinic cell.
 ALAT       =    12.5802402496
 B/A-ratio  =     0.9974197462
 C/A-ratio  =     1.4105278383
 COS(beta)  =    -0.7044835581
  
  Lattice vectors:
  
 A1 = ( -12.5802402496,   0.0000000000,   0.0000000000)
 A2 = (  -0.0001553879, -12.5477800360,   0.0000000000)
 A3 = (  12.5009051075,  -0.0003075861,  12.5938300832)


Analysis of symmetry for initial positions (statically):
=====================================================================
 Subroutine PRICEL returns following result:
 
  LATTYP: Found a simple monoclinic cell.
 ALAT       =     6.2901201248
 B/A-ratio  =     1.9948394924
 C/A-ratio  =     1.4105278383
 COS(beta)  =    -0.7044835581
  
  Lattice vectors:
  
 A1 = (  -6.2901201248,   0.0000000000,   0.0000000000)
 A2 = (  -0.0001553879, -12.5477800360,   0.0000000000)
 A3 = (   6.2504525537,  -0.0001537930,   6.2969150416)
 
   4 primitive cells build up your supercell.
 

 Routine SETGRP: Setting up the symmetry group for a 
 simple monoclinic supercell.


 Subroutine GETGRP returns: Found  1 space group operations
 (whereof  1 operations were pure point group operations)
 out of a pool of  4 trial point group operations.


The static configuration has the point symmetry C_1 .


Analysis of symmetry for dynamics (positions and initial velocities):
=====================================================================
 Subroutine PRICEL returns following result:
 
  LATTYP: Found a simple monoclinic cell.
 ALAT       =     6.2901201248
 B/A-ratio  =     1.9948394924
 C/A-ratio  =     1.4105278383
 COS(beta)  =    -0.7044835581
  
  Lattice vectors:
  
 A1 = (  -6.2901201248,   0.0000000000,   0.0000000000)
 A2 = (  -0.0001553879, -12.5477800360,   0.0000000000)
 A3 = (   6.2504525537,  -0.0001537930,   6.2969150416)
 
   4 primitive cells build up your supercell.
 

 Routine SETGRP: Setting up the symmetry group for a 
 simple monoclinic supercell.


 Subroutine GETGRP returns: Found  1 space group operations
 (whereof  1 operations were pure point group operations)
 out of a pool of  4 trial point group operations.


The dynamic configuration has the point symmetry C_1 .


Analysis of magnetic symmetry:
=====================================================================
 Subroutine PRICEL returns following result:
 
  LATTYP: Found a simple monoclinic cell.
 ALAT       =     6.2901201248
 B/A-ratio  =     1.9948394924
 C/A-ratio  =     1.4105278383
 COS(beta)  =    -0.7044835581
  
  Lattice vectors:
  
 A1 = (  -6.2901201248,   0.0000000000,   0.0000000000)
 A2 = (  -0.0001553879, -12.5477800360,   0.0000000000)
 A3 = (   6.2504525537,  -0.0001537930,   6.2969150416)
 
   4 primitive cells build up your supercell.
 

 Subroutine MAGSYM returns: Found  1 space group operations
 (whereof  1 operations were pure point group operations)
 out of a pool of  1 trial space group operations
 (whereof  1 operations were pure point group operations)
 and found also     4 'primitive' translations


The magnetic configuration has the point symmetry C_1 .
 
 
 KPOINTS: k-points along high symmetry lines      
  interpolating k-points between supplied coordinates
  k-points in reciprocal lattice
Space group operators:
 irot       det(A)        alpha          n_x          n_y          n_z        tau_x        tau_y        tau_z
    1     1.000000     0.000000     1.000000     0.000000     0.000000     0.000000     0.000000     0.000000


--------------------------------------------------------------------------------------------------------




 Dimension of arrays:
   k-points           NKPTS =    110   k-points in BZ     NKDIM =    110   number of bands    NBANDS=    297
   number of dos      NEDOS =    301   number of ions     NIONS =     96
   non local maximal  LDIM  =      6   non local SUM 2l+1 LMDIM =     18
   total plane-waves  NPLWV = 262144
   max r-space proj   IRMAX =   1785   max aug-charges    IRDMAX=   7826
   dimension x,y,z NGX =    64 NGY =   64 NGZ =   64
   dimension x,y,z NGXF=   128 NGYF=  128 NGZF=  128
   support grid    NGXF=   128 NGYF=  128 NGZF=  128
   ions per type =               8   8  48   8  24
 NGX,Y,Z   is equivalent  to a cutoff of   8.46,  8.48,  8.45 a.u.
 NGXF,Y,Z  is equivalent  to a cutoff of  16.92, 16.96, 16.90 a.u.


 I would recommend the setting:
   dimension x,y,z NGX =    62 NGY =   61 NGZ =   62
 SYSTEM =  unknown system                          
 POSCAR =  MA-Pb-I (Pseudocubic)  2x2x2            

 Startparameter for this run:
   NWRITE =      2    write-flag & timer
   PREC   = normal    normal or accurate (medium, high low for compatibility)
   ISTART =      0    job   : 0-new  1-cont  2-samecut
   ICHARG =     11    charge: 1-file 2-atom 10-const
   ISPIN  =      2    spin polarized calculation?
   LNONCOLLINEAR =      F non collinear calculations
   LSORBIT =      F    spin-orbit coupling
   INIWAV =      1    electr: 0-lowe 1-rand  2-diag
   LASPH  =      F    aspherical Exc in radial PAW
   METAGGA=      F    non-selfconsistent MetaGGA calc.

 Electronic Relaxation 1
   ENCUT  =  400.0 eV  29.40 Ry    5.42 a.u.  20.52 20.46 20.54*2*pi/ulx,y,z
   ENINI  =  400.0     initial cutoff
   ENAUG  =  644.9 eV  augmentation charge cutoff
   NELM   =     60;   NELMIN=  2; NELMDL= -5     # of ELM steps 
   EDIFF  = 0.1E-03   stopping-criterion for ELM
   LREAL  =      T    real-space projection
   NLSPLINE    = F    spline interpolate recip. space projectors
   LCOMPAT=      F    compatible to vasp.4.4
   GGA_COMPAT  = T    GGA compatible to vasp.4.4-vasp.4.6
   LMAXPAW     = -100 max onsite density
   LMAXMIX     =    4 max onsite mixed and CHGCAR
   VOSKOWN=      0    Vosko Wilk Nusair interpolation
   ROPT   =   -0.00050  -0.00050  -0.00050  -0.00050
   ROPT   =   -0.00050
 Ionic relaxation
   EDIFFG = -.2E-01   stopping-criterion for IOM
   NSW    =      0    number of steps for IOM
   NBLOCK =      1;   KBLOCK =      1    inner block; outer block 
   IBRION =     -1    ionic relax: 0-MD 1-quasi-New 2-CG
   NFREE  =      0    steps in history (QN), initial steepest desc. (CG)
   ISIF   =      2    stress and relaxation
   IWAVPR =     10    prediction:  0-non 1-charg 2-wave 3-comb
   ISYM   =      2    0-nonsym 1-usesym 2-fastsym
   LCORR  =      T    Harris-Foulkes like correction to forces

   POTIM  = 0.5000    time-step for ionic-motion
   TEIN   =    0.0    initial temperature
   TEBEG  =    0.0;   TEEND  =   0.0 temperature during run
   SMASS  =  -3.00    Nose mass-parameter (am)
   estimated Nose-frequenzy (Omega)   =  0.10E-29 period in steps =****** mass=  -0.362E-26a.u.
   SCALEE = 1.0000    scale energy and forces
   NPACO  =    256;   APACO  = 16.0  distance and # of slots for P.C.
   PSTRESS=    0.0 pullay stress

  Mass of Ions in am
   POMASS =  12.01 14.00  1.00207.20126.90
  Ionic Valenz
   ZVAL   =   4.00  5.00  1.00 14.00  7.00
  Atomic Wigner-Seitz radii
   RWIGS  =  -1.00 -1.00 -1.00 -1.00 -1.00
  virtual crystal weights 
   VCA    =   1.00  1.00  1.00  1.00  1.00
   NELECT =     399.0000    total number of electrons
   NUPDOWN=      -1.0000    fix difference up-down

 DOS related values:
   EMIN   =  10.00;   EMAX   =-10.00  energy-range for DOS
   EFERMI =   0.00
   ISMEAR =     0;   SIGMA  =   0.20  broadening in eV -4-tet -1-fermi 0-gaus

 Electronic relaxation 2 (details)
   IALGO  =     38    algorithm
   LDIAG  =      T    sub-space diagonalisation (order eigenvalues)
   LSUBROT=      F    optimize rotation matrix (better conditioning)
   TURBO    =      0    0=normal 1=particle mesh
   IRESTART =      0    0=no restart 2=restart with 2 vectors
   NREBOOT  =      0    no. of reboots
   NMIN     =      0    reboot dimension
   EREF     =   0.00    reference energy to select bands
   IMIX   =      4    mixing-type and parameters
     AMIX     =   0.40;   BMIX     =  1.00
     AMIX_MAG =   1.60;   BMIX_MAG =  1.00
     AMIN     =   0.10
     WC   =   100.;   INIMIX=   1;  MIXPRE=   1;  MAXMIX= -45

 Intra band minimization:
   WEIMIN = 0.0000     energy-eigenvalue tresh-hold
   EBREAK =  0.84E-07  absolut break condition
   DEPER  =   0.30     relativ break condition  

   TIME   =   0.40     timestep for ELM

  volume/ion in A,a.u.               =      20.71       139.75
  Fermi-wavevector in a.u.,A,eV,Ry     =   0.958505  1.811313 12.500117  0.918733
  Thomas-Fermi vector in A             =   2.087619
 
 Write flags
   LWAVE  =      T    write WAVECAR
   LCHARG =      T    write CHGCAR
   LVTOT  =      F    write LOCPOT, total local potential
   LVHAR  =      F    write LOCPOT, Hartree potential only
   LELF   =      F    write electronic localiz. function (ELF)
   LORBIT =     11    0 simple, 1 ext, 2 COOP (PROOUT)


 Dipole corrections
   LMONO  =      F    monopole corrections only (constant potential shift)
   LDIPOL =      F    correct potential (dipole corrections)
   IDIPOL =      0    1-x, 2-y, 3-z, 4-all directions 
   EPSILON=  1.0000000 bulk dielectric constant

 Exchange correlation treatment:
   GGA     =    --    GGA type
   LEXCH   =     2    internal setting for exchange type
   VOSKOWN=      0    Vosko Wilk Nusair interpolation
   LHFCALC =     F    Hartree Fock is set to
   LHFONE  =     F    Hartree Fock one center treatment
   AEXX    =    0.0000 exact exchange contribution

 Linear response parameters
   LEPSILON=     F    determine dielectric tensor
   LRPA    =     F    only Hartree local field effects (RPA)
   LNABLA  =     F    use nabla operator in PAW spheres
   LVEL    =     F    velocity operator in full k-point grid
   LINTERFAST=   F  fast interpolation
   KINTER  =     0    interpolate to denser k-point grid
   CSHIFT  =0.1000    complex shift for real part using Kramers Kronig
   OMEGAMAX=  -1.0    maximum frequency
   DEG_THRESHOLD= 0.2000000E-02 threshold for treating states as degnerate
   RTIME   =    0.100 relaxation time in fs

 Orbital magnetization related:
   ORBITALMAG=     F  switch on orbital magnetization
   LCHIMAG   =     F  perturbation theory with respect to B field
   DQ        =  0.001000  dq finite difference perturbation B field



--------------------------------------------------------------------------------------------------------


 Static calculation
 charge density and potential remain constant during run
 spin polarized calculation
 Variant of blocked Davidson
 Davidson routine will perform the subspace rotation
 perform sub-space diagonalisation
    after iterative eigenvector-optimisation
 no mixing
 using additional bands           97
 real space projection scheme for non local part
 use partial core corrections
 calculate Harris-corrections to forces 
   (improved forces if not selfconsistent)
 use of overlap-Matrix (Vanderbilt PP)
 Gauss-broadening in eV      SIGMA  =   0.20


--------------------------------------------------------------------------------------------------------


  energy-cutoff  :      400.00
  volume of cell :     1987.99
      direct lattice vectors                 reciprocal lattice vectors
    12.580240250  0.000000000  0.000000000     0.079489738 -0.000000984  0.000500748
     0.000155388 12.547780036  0.000000000     0.000000000  0.079695372  0.000001946
    -0.079335142 -0.000307586 12.593830083     0.000000000  0.000000000  0.079403962

  length of vectors
    12.580240250 12.547780037 12.594079971     0.079491315  0.079695372  0.079403962


 
 k-points in units of 2pi/SCALE and weight: k-points along high symmetry lines      
   0.03974487 -0.00000049  0.03995235       0.009
   0.03974487  0.00442703  0.03995246       0.009
   0.03974487  0.00885455  0.03995257       0.009
   0.03974487  0.01328207  0.03995268       0.009
   0.03974487  0.01770959  0.03995279       0.009
   0.03974487  0.02213711  0.03995290       0.009
   0.03974487  0.02656463  0.03995300       0.009
   0.03974487  0.03099215  0.03995311       0.009
   0.03974487  0.03541967  0.03995322       0.009
   0.03974487  0.03984719  0.03995333       0.009
   0.03974487  0.03984719  0.03995333       0.009
   0.03532877  0.03541973  0.03992540       0.009
   0.03091268  0.03099226  0.03989747       0.009
   0.02649658  0.02656480  0.03986955       0.009
   0.02208048  0.02213733  0.03984162       0.009
   0.01766439  0.01770986  0.03981369       0.009
   0.01324829  0.01328240  0.03978576       0.009
   0.00883219  0.00885493  0.03975784       0.009
   0.00441610  0.00442747  0.03972991       0.009
   0.00000000  0.00000000  0.03970198       0.009
   0.00000000  0.00000000  0.03970198       0.009
   0.00000000  0.00442752  0.03970209       0.009
   0.00000000  0.00885504  0.03970220       0.009
   0.00000000  0.01328256  0.03970231       0.009
   0.00000000  0.01771008  0.03970241       0.009
   0.00000000  0.02213760  0.03970252       0.009
   0.00000000  0.02656512  0.03970263       0.009
   0.00000000  0.03099264  0.03970274       0.009
   0.00000000  0.03542017  0.03970285       0.009
   0.00000000  0.03984769  0.03970295       0.009
   0.00000000  0.03984769  0.03970295       0.009
   0.00441610  0.03984763  0.03973077       0.009
   0.00883219  0.03984758  0.03975859       0.009
   0.01324829  0.03984752  0.03978641       0.009
   0.01766439  0.03984747  0.03981423       0.009
   0.02208048  0.03984741  0.03984205       0.009
   0.02649658  0.03984736  0.03986987       0.009
   0.03091268  0.03984730  0.03989769       0.009
   0.03532877  0.03984725  0.03992551       0.009
   0.03974487  0.03984719  0.03995333       0.009
   0.03974487  0.03984719  0.03995333       0.009
   0.03532877  0.03984725  0.03551418       0.009
   0.03091268  0.03984730  0.03107503       0.009
   0.02649658  0.03984736  0.02663588       0.009
   0.02208048  0.03984741  0.02219673       0.009
   0.01766439  0.03984747  0.01775758       0.009
   0.01324829  0.03984752  0.01331842       0.009
   0.00883219  0.03984758  0.00887927       0.009
   0.00441610  0.03984763  0.00444012       0.009
   0.00000000  0.03984769  0.00000097       0.009
   0.00000000  0.03984769  0.00000097       0.009
   0.00441610  0.03984763  0.00002879       0.009
   0.00883219  0.03984758  0.00005661       0.009
   0.01324829  0.03984752  0.00008443       0.009
   0.01766439  0.03984747  0.00011225       0.009
   0.02208048  0.03984741  0.00014007       0.009
   0.02649658  0.03984736  0.00016789       0.009
   0.03091268  0.03984730  0.00019571       0.009
   0.03532877  0.03984725  0.00022353       0.009
   0.03974487  0.03984719  0.00025135       0.009
   0.03974487  0.03984719  0.00025135       0.009
   0.03974487  0.03984719  0.00466268       0.009
   0.03974487  0.03984719  0.00907401       0.009
   0.03974487  0.03984719  0.01348534       0.009
   0.03974487  0.03984719  0.01789667       0.009
   0.03974487  0.03984719  0.02230800       0.009
   0.03974487  0.03984719  0.02671933       0.009
   0.03974487  0.03984719  0.03113067       0.009
   0.03974487  0.03984719  0.03554200       0.009
   0.03974487  0.03984719  0.03995333       0.009
   0.03974487  0.03984719  0.03995333       0.009
   0.03974487  0.03541967  0.03554189       0.009
   0.03974487  0.03099215  0.03113045       0.009
   0.03974487  0.02656463  0.02671901       0.009
   0.03974487  0.02213711  0.02230757       0.009
   0.03974487  0.01770959  0.01789613       0.009
   0.03974487  0.01328207  0.01348469       0.009
   0.03974487  0.00885455  0.00907325       0.009
   0.03974487  0.00442703  0.00466181       0.009
   0.03974487 -0.00000049  0.00025037       0.009
   0.03974487 -0.00000049  0.00025037       0.009
   0.03532877 -0.00000044  0.00022255       0.009
   0.03091268 -0.00000038  0.00019474       0.009
   0.02649658 -0.00000033  0.00016692       0.009
   0.02208048 -0.00000027  0.00013910       0.009
   0.01766439 -0.00000022  0.00011128       0.009
   0.01324829 -0.00000016  0.00008346       0.009
   0.00883219 -0.00000011  0.00005564       0.009
   0.00441610 -0.00000005  0.00002782       0.009
   0.00000000  0.00000000  0.00000000       0.009
   0.00000000  0.00000000  0.00000000       0.009
   0.00441610  0.00442747  0.00443926       0.009
   0.00883219  0.00885493  0.00887852       0.009
   0.01324829  0.01328240  0.01331778       0.009
   0.01766439  0.01770986  0.01775703       0.009
   0.02208048  0.02213733  0.02219629       0.009
   0.02649658  0.02656480  0.02663555       0.009
   0.03091268  0.03099226  0.03107481       0.009
   0.03532877  0.03541973  0.03551407       0.009
   0.03974487  0.03984719  0.03995333       0.009
   0.03974487  0.03984719  0.03995333       0.009
   0.03974487  0.03541967  0.03995322       0.009
   0.03974487  0.03099215  0.03995311       0.009
   0.03974487  0.02656463  0.03995300       0.009
   0.03974487  0.02213711  0.03995290       0.009
   0.03974487  0.01770959  0.03995279       0.009
   0.03974487  0.01328207  0.03995268       0.009
   0.03974487  0.00885455  0.03995257       0.009
   0.03974487  0.00442703  0.03995246       0.009
   0.03974487 -0.00000049  0.03995235       0.009
 
 k-points in reciprocal lattice and weights: k-points along high symmetry lines      
   0.50000000  0.00000000  0.50000000       0.009
   0.50000000  0.05555556  0.50000000       0.009
   0.50000000  0.11111111  0.50000000       0.009
   0.50000000  0.16666667  0.50000000       0.009
   0.50000000  0.22222222  0.50000000       0.009
   0.50000000  0.27777778  0.50000000       0.009
   0.50000000  0.33333333  0.50000000       0.009
   0.50000000  0.38888889  0.50000000       0.009
   0.50000000  0.44444444  0.50000000       0.009
   0.50000000  0.50000000  0.50000000       0.009
   0.50000000  0.50000000  0.50000000       0.009
   0.44444444  0.44444444  0.50000000       0.009
   0.38888889  0.38888889  0.50000000       0.009
   0.33333333  0.33333333  0.50000000       0.009
   0.27777778  0.27777778  0.50000000       0.009
   0.22222222  0.22222222  0.50000000       0.009
   0.16666667  0.16666667  0.50000000       0.009
   0.11111111  0.11111111  0.50000000       0.009
   0.05555556  0.05555556  0.50000000       0.009
   0.00000000  0.00000000  0.50000000       0.009
   0.00000000  0.00000000  0.50000000       0.009
   0.00000000  0.05555556  0.50000000       0.009
   0.00000000  0.11111111  0.50000000       0.009
   0.00000000  0.16666667  0.50000000       0.009
   0.00000000  0.22222222  0.50000000       0.009
   0.00000000  0.27777778  0.50000000       0.009
   0.00000000  0.33333333  0.50000000       0.009
   0.00000000  0.38888889  0.50000000       0.009
   0.00000000  0.44444444  0.50000000       0.009
   0.00000000  0.50000000  0.50000000       0.009
   0.00000000  0.50000000  0.50000000       0.009
   0.05555556  0.50000000  0.50000000       0.009
   0.11111111  0.50000000  0.50000000       0.009
   0.16666667  0.50000000  0.50000000       0.009
   0.22222222  0.50000000  0.50000000       0.009
   0.27777778  0.50000000  0.50000000       0.009
   0.33333333  0.50000000  0.50000000       0.009
   0.38888889  0.50000000  0.50000000       0.009
   0.44444444  0.50000000  0.50000000       0.009
   0.50000000  0.50000000  0.50000000       0.009
   0.50000000  0.50000000  0.50000000       0.009
   0.44444444  0.50000000  0.44444444       0.009
   0.38888889  0.50000000  0.38888889       0.009
   0.33333333  0.50000000  0.33333333       0.009
   0.27777778  0.50000000  0.27777778       0.009
   0.22222222  0.50000000  0.22222222       0.009
   0.16666667  0.50000000  0.16666667       0.009
   0.11111111  0.50000000  0.11111111       0.009
   0.05555556  0.50000000  0.05555556       0.009
   0.00000000  0.50000000  0.00000000       0.009
   0.00000000  0.50000000  0.00000000       0.009
   0.05555556  0.50000000  0.00000000       0.009
   0.11111111  0.50000000  0.00000000       0.009
   0.16666667  0.50000000  0.00000000       0.009
   0.22222222  0.50000000  0.00000000       0.009
   0.27777778  0.50000000  0.00000000       0.009
   0.33333333  0.50000000  0.00000000       0.009
   0.38888889  0.50000000  0.00000000       0.009
   0.44444444  0.50000000  0.00000000       0.009
   0.50000000  0.50000000  0.00000000       0.009
   0.50000000  0.50000000  0.00000000       0.009
   0.50000000  0.50000000  0.05555556       0.009
   0.50000000  0.50000000  0.11111111       0.009
   0.50000000  0.50000000  0.16666667       0.009
   0.50000000  0.50000000  0.22222222       0.009
   0.50000000  0.50000000  0.27777778       0.009
   0.50000000  0.50000000  0.33333333       0.009
   0.50000000  0.50000000  0.38888889       0.009
   0.50000000  0.50000000  0.44444444       0.009
   0.50000000  0.50000000  0.50000000       0.009
   0.50000000  0.50000000  0.50000000       0.009
   0.50000000  0.44444444  0.44444444       0.009
   0.50000000  0.38888889  0.38888889       0.009
   0.50000000  0.33333333  0.33333333       0.009
   0.50000000  0.27777778  0.27777778       0.009
   0.50000000  0.22222222  0.22222222       0.009
   0.50000000  0.16666667  0.16666667       0.009
   0.50000000  0.11111111  0.11111111       0.009
   0.50000000  0.05555556  0.05555556       0.009
   0.50000000  0.00000000  0.00000000       0.009
   0.50000000  0.00000000  0.00000000       0.009
   0.44444444  0.00000000  0.00000000       0.009
   0.38888889  0.00000000  0.00000000       0.009
   0.33333333  0.00000000  0.00000000       0.009
   0.27777778  0.00000000  0.00000000       0.009
   0.22222222  0.00000000  0.00000000       0.009
   0.16666667  0.00000000  0.00000000       0.009
   0.11111111  0.00000000  0.00000000       0.009
   0.05555556  0.00000000  0.00000000       0.009
   0.00000000  0.00000000  0.00000000       0.009
   0.00000000  0.00000000  0.00000000       0.009
   0.05555556  0.05555556  0.05555556       0.009
   0.11111111  0.11111111  0.11111111       0.009
   0.16666667  0.16666667  0.16666667       0.009
   0.22222222  0.22222222  0.22222222       0.009
   0.27777778  0.27777778  0.27777778       0.009
   0.33333333  0.33333333  0.33333333       0.009
   0.38888889  0.38888889  0.38888889       0.009
   0.44444444  0.44444444  0.44444444       0.009
   0.50000000  0.50000000  0.50000000       0.009
   0.50000000  0.50000000  0.50000000       0.009
   0.50000000  0.44444444  0.50000000       0.009
   0.50000000  0.38888889  0.50000000       0.009
   0.50000000  0.33333333  0.50000000       0.009
   0.50000000  0.27777778  0.50000000       0.009
   0.50000000  0.22222222  0.50000000       0.009
   0.50000000  0.16666667  0.50000000       0.009
   0.50000000  0.11111111  0.50000000       0.009
   0.50000000  0.05555556  0.50000000       0.009
   0.50000000  0.00000000  0.50000000       0.009
 
 position of ions in fractional coordinates (direct lattice) 
   0.45138673  0.99997884  0.49814242
   0.45138673  0.99997884  0.99814242
   0.45138673  0.49997884  0.49814242
   0.45138673  0.49997884  0.99814242
   0.95138673  0.99997884  0.49814242
   0.95138673  0.99997884  0.99814242
   0.95138673  0.49997884  0.49814242
   0.95138673  0.49997884  0.99814242
   0.06738157  0.49991918  0.01348769
   0.06738157  0.49991918  0.51348771
   0.06738157  0.99991915  0.01348769
   0.06738157  0.99991915  0.51348771
   0.56738156  0.49991918  0.01348769
   0.56738156  0.49991918  0.51348771
   0.56738156  0.99991915  0.01348769
   0.56738156  0.99991915  0.51348771
   0.43247178  0.49987871  0.41240817
   0.43247178  0.49987871  0.91240814
   0.43247178  0.99987868  0.41240817
   0.43247178  0.99987868  0.91240814
   0.93247178  0.49987871  0.41240817
   0.93247178  0.49987871  0.91240814
   0.93247178  0.99987868  0.41240817
   0.93247178  0.99987868  0.91240814
   0.41806742  0.07194258  0.03553601
   0.41806742  0.07194258  0.53553600
   0.41806742  0.57194258  0.03553601
   0.41806742  0.57194258  0.53553600
   0.91806745  0.07194258  0.03553601
   0.91806745  0.07194258  0.53553600
   0.91806745  0.57194258  0.03553601
   0.91806745  0.57194258  0.53553600
   0.41793662  0.42823037  0.03574464
   0.41793662  0.42823037  0.53574466
   0.41793662  0.92823040  0.03574464
   0.41793662  0.92823040  0.53574466
   0.91793665  0.42823037  0.03574464
   0.91793665  0.42823037  0.53574466
   0.91793665  0.92823040  0.03574464
   0.91793665  0.92823040  0.53574466
   0.10339492  0.06722095  0.48001809
   0.10339492  0.06722095  0.98001809
   0.10339492  0.56722096  0.48001809
   0.10339492  0.56722096  0.98001809
   0.60339491  0.06722095  0.48001809
   0.60339491  0.06722095  0.98001809
   0.60339491  0.56722096  0.48001809
   0.60339491  0.56722096  0.98001809
   0.10328680  0.43241689  0.48019235
   0.10328680  0.43241689  0.98019235
   0.10328680  0.93241692  0.48019235
   0.10328680  0.93241692  0.98019235
   0.60328678  0.43241689  0.48019235
   0.60328678  0.43241689  0.98019235
   0.60328678  0.93241692  0.48019235
   0.60328678  0.93241692  0.98019235
   0.08931235  0.99999270  0.09424334
   0.08931235  0.99999270  0.59424332
   0.08931235  0.49999267  0.09424334
   0.08931235  0.49999267  0.59424332
   0.58931234  0.99999270  0.09424334
   0.58931234  0.99999270  0.59424332
   0.58931234  0.49999267  0.09424334
   0.58931234  0.49999267  0.59424332
   0.24148886  0.24999737  0.24247773
   0.24148886  0.24999737  0.74247773
   0.24148886  0.74999737  0.24247773
   0.24148886  0.74999737  0.74247773
   0.74148886  0.24999737  0.24247773
   0.74148886  0.24999737  0.74247773
   0.74148886  0.74999737  0.24247773
   0.74148886  0.74999737  0.74247773
   0.20915349  0.24995655  0.48751014
   0.20915349  0.24995655  0.98751014
   0.20915349  0.74995657  0.48751014
   0.20915349  0.74995657  0.98751014
   0.70915349  0.24995655  0.48751014
   0.70915349  0.24995655  0.98751014
   0.70915349  0.74995657  0.48751014
   0.70915349  0.74995657  0.98751014
   0.22252117  0.00000027  0.25322854
   0.22252117  0.00000027  0.75322854
   0.22252117  0.50000029  0.25322854
   0.22252117  0.50000029  0.75322854
   0.72252114  0.00000027  0.25322854
   0.72252114  0.00000027  0.75322854
   0.72252114  0.50000029  0.25322854
   0.72252114  0.50000029  0.75322854
   0.48258829  0.25011661  0.21490487
   0.48258829  0.25011661  0.71490489
   0.48258829  0.75011664  0.21490487
   0.48258829  0.75011664  0.71490489
   0.98258826  0.25011661  0.21490487
   0.98258826  0.25011661  0.71490489
   0.98258826  0.75011664  0.21490487
   0.98258826  0.75011664  0.71490489
 
 position of ions in cartesian coordinates  (Angst):
   5.63918867 12.54736129  6.27352103
   5.59952110 12.54720750 12.57043607
   5.63911098  6.27347127  6.27352103
   5.59944341  6.27331748 12.57043607
  11.92930880 12.54736129  6.27352103
  11.88964122 12.54720750 12.57043607
  11.92923110  6.27347127  6.27352103
  11.88956353  6.27331748 12.57043607
   0.84668399  6.27287178  0.16986171
   0.80701642  6.27271799  6.46677703
   0.84676168 12.54676143  0.16986171
   0.80709411 12.54660763  6.46677703
   7.13680401  6.27287178  0.16986171
   7.09713644  6.27271799  6.46677703
   7.13688171 12.54676143  0.16986171
   7.09721413 12.54660763  6.46677703
   5.40795808  6.27224125  5.19379841
   5.36829051  6.27208745 11.49071307
   5.40803577 12.54613089  5.19379841
   5.36836821 12.54597709 11.49071307
  11.69807821  6.27224125  5.19379841
  11.65841064  6.27208745 11.49071307
  11.69815590 12.54613089  5.19379841
  11.65848833 12.54597709 11.49071307
   5.25658052  0.90270876  0.44753445
   5.21691295  0.90255497  6.74444940
   5.25665821  7.17659878  0.44753445
   5.21699064  7.17644499  6.74444940
  11.54670101  0.90270876  0.44753445
  11.50703344  0.90255497  6.74444940
  11.54677870  7.17659878  0.44753445
  11.50711113  7.17644499  6.74444940
   5.25497384  5.37332955  0.45016190
   5.21530627  5.37317575  6.74707722
   5.25505154 11.64721994  0.45016190
   5.21538397 11.64706615  6.74707722
  11.54509435  5.37332955  0.45016190
  11.50542677  5.37317575  6.74707722
  11.54517204 11.64721994  0.45016190
  11.50550447 11.64706615  6.74707722
   1.26266112  0.84332610  6.04526626
   1.22299355  0.84317230 12.34218131
   1.26273881  7.11721621  6.04526626
   1.22307124  7.11706242 12.34218131
   7.55278105  0.84332610  6.04526626
   7.51311348  0.84317230 12.34218131
   7.55285875  7.11721621  6.04526626
   7.51319118  7.11706242 12.34218131
   1.26134383  5.42572432  6.04746082
   1.22167626  5.42557053 12.34437586
   1.26142153 11.69961471  6.04746082
   1.22175395 11.69946091 12.34437586
   7.55146367  5.42572432  6.04746082
   7.51179610  5.42557053 12.34437586
   7.55154136 11.69961471  6.04746082
   7.51187379 11.69946091 12.34437586
   1.11624943 12.54765941  1.18688462
   1.07658186 12.54750562  7.48379939
   1.11617173  6.27376905  1.18688462
   1.07650416  6.27361526  7.48379939
   7.40636938 12.54765941  1.18688462
   7.36670181 12.54750562  7.48379939
   7.40629168  6.27376905  1.18688462
   7.36662411  6.27361526  7.48379939
   3.01878976  3.13683743  3.05372334
   2.97912219  3.13668364  9.35063838
   3.01886745  9.41072745  3.05372334
   2.97919988  9.41057366  9.35063838
   9.30890988  3.13683743  3.05372334
   9.26924231  3.13668364  9.35063838
   9.30898757  9.41072745  3.05372334
   9.26932000  9.41057366  9.35063838
   2.59256330  3.13624988  6.13961986
   2.55289573  3.13609609 12.43653490
   2.59264100  9.41014009  6.13961986
   2.55297342  9.40998630 12.43653490
   8.88268343  3.13624988  6.13961986
   8.84301586  3.13609609 12.43653490
   8.88276112  9.41014009  6.13961986
   8.84309355  9.40998630 12.43653490
   2.77927991 -0.00007454  3.18911715
   2.73961234 -0.00022833  9.48603219
   2.77935761  6.27381575  3.18911715
   2.73969003  6.27366196  9.48603219
   9.06939966 -0.00007454  3.18911715
   9.02973209 -0.00022833  9.48603219
   9.06947735  6.27381575  3.18911715
   9.02980978  6.27366196  9.48603219
   6.05406595  3.13834209  2.70647547
   6.01439838  3.13818830  9.00339070
   6.05414364  9.41223249  2.70647547
   6.01447607  9.41207869  9.00339070
  12.34418571  3.13834209  2.70647547
  12.30451814  3.13818830  9.00339070
  12.34426340  9.41223249  2.70647547
  12.30459583  9.41207869  9.00339070
 


--------------------------------------------------------------------------------------------------------


 k-point  1 :   0.5000 0.0000 0.5000  plane waves:   36120
 k-point  2 :   0.5000 0.0556 0.5000  plane waves:   36108
 k-point  3 :   0.5000 0.1111 0.5000  plane waves:   36106
 k-point  4 :   0.5000 0.1667 0.5000  plane waves:   36106
 k-point  5 :   0.5000 0.2222 0.5000  plane waves:   36097
 k-point  6 :   0.5000 0.2778 0.5000  plane waves:   36058
 k-point  7 :   0.5000 0.3333 0.5000  plane waves:   36064
 k-point  8 :   0.5000 0.3889 0.5000  plane waves:   36048
 k-point  9 :   0.5000 0.4444 0.5000  plane waves:   36011
 k-point 10 :   0.5000 0.5000 0.5000  plane waves:   36012
 k-point 11 :   0.5000 0.5000 0.5000  plane waves:   36012
 k-point 12 :   0.4444 0.4444 0.5000  plane waves:   36021
 k-point 13 :   0.3889 0.3889 0.5000  plane waves:   36051
 k-point 14 :   0.3333 0.3333 0.5000  plane waves:   36075
 k-point 15 :   0.2778 0.2778 0.5000  plane waves:   36068
 k-point 16 :   0.2222 0.2222 0.5000  plane waves:   36086
 k-point 17 :   0.1667 0.1667 0.5000  plane waves:   36091
 k-point 18 :   0.1111 0.1111 0.5000  plane waves:   36110
 k-point 19 :   0.0556 0.0556 0.5000  plane waves:   36118
 k-point 20 :   0.0000 0.0000 0.5000  plane waves:   36128
 k-point 21 :   0.0000 0.0000 0.5000  plane waves:   36128
 k-point 22 :   0.0000 0.0556 0.5000  plane waves:   36127
 k-point 23 :   0.0000 0.1111 0.5000  plane waves:   36116
 k-point 24 :   0.0000 0.1667 0.5000  plane waves:   36126
 k-point 25 :   0.0000 0.2222 0.5000  plane waves:   36124
 k-point 26 :   0.0000 0.2778 0.5000  plane waves:   36120
 k-point 27 :   0.0000 0.3333 0.5000  plane waves:   36132
 k-point 28 :   0.0000 0.3889 0.5000  plane waves:   36114
 k-point 29 :   0.0000 0.4444 0.5000  plane waves:   36102
 k-point 30 :   0.0000 0.5000 0.5000  plane waves:   36128
 k-point 31 :   0.0000 0.5000 0.5000  plane waves:   36128
 k-point 32 :   0.0556 0.5000 0.5000  plane waves:   36099
 k-point 33 :   0.1111 0.5000 0.5000  plane waves:   36103
 k-point 34 :   0.1667 0.5000 0.5000  plane waves:   36095
 k-point 35 :   0.2222 0.5000 0.5000  plane waves:   36085
 k-point 36 :   0.2778 0.5000 0.5000  plane waves:   36064
 k-point 37 :   0.3333 0.5000 0.5000  plane waves:   36048
 k-point 38 :   0.3889 0.5000 0.5000  plane waves:   36020
 k-point 39 :   0.4444 0.5000 0.5000  plane waves:   36004
 k-point 40 :   0.5000 0.5000 0.5000  plane waves:   36012
 k-point 41 :   0.5000 0.5000 0.5000  plane waves:   36012
 k-point 42 :   0.4444 0.5000 0.4444  plane waves:   36020
 k-point 43 :   0.3889 0.5000 0.3889  plane waves:   36056
 k-point 44 :   0.3333 0.5000 0.3333  plane waves:   36079
 k-point 45 :   0.2778 0.5000 0.2778  plane waves:   36109
 k-point 46 :   0.2222 0.5000 0.2222  plane waves:   36118
 k-point 47 :   0.1667 0.5000 0.1667  plane waves:   36118
 k-point 48 :   0.1111 0.5000 0.1111  plane waves:   36100
 k-point 49 :   0.0556 0.5000 0.0556  plane waves:   36108
 k-point 50 :   0.0000 0.5000 0.0000  plane waves:   36102
 k-point 51 :   0.0000 0.5000 0.0000  plane waves:   36102
 k-point 52 :   0.0556 0.5000 0.0000  plane waves:   36115
 k-point 53 :   0.1111 0.5000 0.0000  plane waves:   36110
 k-point 54 :   0.1667 0.5000 0.0000  plane waves:   36114
 k-point 55 :   0.2222 0.5000 0.0000  plane waves:   36115
 k-point 56 :   0.2778 0.5000 0.0000  plane waves:   36130
 k-point 57 :   0.3333 0.5000 0.0000  plane waves:   36150
 k-point 58 :   0.3889 0.5000 0.0000  plane waves:   36138
 k-point 59 :   0.4444 0.5000 0.0000  plane waves:   36109
 k-point 60 :   0.5000 0.5000 0.0000  plane waves:   36132
 k-point 61 :   0.5000 0.5000 0.0000  plane waves:   36132
 k-point 62 :   0.5000 0.5000 0.0556  plane waves:   36102
 k-point 63 :   0.5000 0.5000 0.1111  plane waves:   36100
 k-point 64 :   0.5000 0.5000 0.1667  plane waves:   36084
 k-point 65 :   0.5000 0.5000 0.2222  plane waves:   36084
 k-point 66 :   0.5000 0.5000 0.2778  plane waves:   36069
 k-point 67 :   0.5000 0.5000 0.3333  plane waves:   36050
 k-point 68 :   0.5000 0.5000 0.3889  plane waves:   36030
 k-point 69 :   0.5000 0.5000 0.4444  plane waves:   36010
 k-point 70 :   0.5000 0.5000 0.5000  plane waves:   36012
 k-point 71 :   0.5000 0.5000 0.5000  plane waves:   36012
 k-point 72 :   0.5000 0.4444 0.4444  plane waves:   36015
 k-point 73 :   0.5000 0.3889 0.3889  plane waves:   36036
 k-point 74 :   0.5000 0.3333 0.3333  plane waves:   36074
 k-point 75 :   0.5000 0.2778 0.2778  plane waves:   36064
 k-point 76 :   0.5000 0.2222 0.2222  plane waves:   36093
 k-point 77 :   0.5000 0.1667 0.1667  plane waves:   36085
 k-point 78 :   0.5000 0.1111 0.1111  plane waves:   36106
 k-point 79 :   0.5000 0.0556 0.0556  plane waves:   36105
 k-point 80 :   0.5000 0.0000 0.0000  plane waves:   36120
 k-point 81 :   0.5000 0.0000 0.0000  plane waves:   36120
 k-point 82 :   0.4444 0.0000 0.0000  plane waves:   36105
 k-point 83 :   0.3889 0.0000 0.0000  plane waves:   36121
 k-point 84 :   0.3333 0.0000 0.0000  plane waves:   36110
 k-point 85 :   0.2778 0.0000 0.0000  plane waves:   36097
 k-point 86 :   0.2222 0.0000 0.0000  plane waves:   36127
 k-point 87 :   0.1667 0.0000 0.0000  plane waves:   36119
 k-point 88 :   0.1111 0.0000 0.0000  plane waves:   36099
 k-point 89 :   0.0556 0.0000 0.0000  plane waves:   36111
 k-point 90 :   0.0000 0.0000 0.0000  plane waves:   36113
 k-point 91 :   0.0000 0.0000 0.0000  plane waves:   36113
 k-point 92 :   0.0556 0.0556 0.0556  plane waves:   36091
 k-point 93 :   0.1111 0.1111 0.1111  plane waves:   36116
 k-point 94 :   0.1667 0.1667 0.1667  plane waves:   36133
 k-point 95 :   0.2222 0.2222 0.2222  plane waves:   36099
 k-point 96 :   0.2778 0.2778 0.2778  plane waves:   36107
 k-point 97 :   0.3333 0.3333 0.3333  plane waves:   36110
 k-point 98 :   0.3889 0.3889 0.3889  plane waves:   36066
 k-point 99 :   0.4444 0.4444 0.4444  plane waves:   36024
 k-point ** :   0.5000 0.5000 0.5000  plane waves:   36012
 k-point ** :   0.5000 0.5000 0.5000  plane waves:   36012
 k-point ** :   0.5000 0.4444 0.5000  plane waves:   36011
 k-point ** :   0.5000 0.3889 0.5000  plane waves:   36048
 k-point ** :   0.5000 0.3333 0.5000  plane waves:   36064
 k-point ** :   0.5000 0.2778 0.5000  plane waves:   36058
 k-point ** :   0.5000 0.2222 0.5000  plane waves:   36097
 k-point ** :   0.5000 0.1667 0.5000  plane waves:   36106
 k-point ** :   0.5000 0.1111 0.5000  plane waves:   36106
 k-point ** :   0.5000 0.0556 0.5000  plane waves:   36108
 k-point ** :   0.5000 0.0000 0.5000  plane waves:   36120

 maximum and minimum number of plane-waves per node :      4062     3954

 maximum number of plane-waves:     36150
 maximum index in each direction: 
   IXMAX=   20   IYMAX=   20   IZMAX=   20
   IXMIN=  -21   IYMIN=  -20   IZMIN=  -21

 WARNING: aliasing errors must be expected set NGX to  84 to avoid them
 WARNING: aliasing errors must be expected set NGY to  82 to avoid them
 WARNING: aliasing errors must be expected set NGZ to  84 to avoid them
 aliasing errors are usually negligible using standard VASP settings
 and one can safely disregard these warnings

 real space projection operators:
  total allocation   :       8970.94 KBytes
  max/ min on nodes  :       1131.09        957.75


 parallel 3D FFT for wavefunctions:
    minimum data exchange during FFTs selected (reduces bandwidth)
 parallel 3D FFT for charge:
    minimum data exchange during FFTs selected (reduces bandwidth)


 total amount of memory used by VASP on root node   525013. kBytes
========================================================================

   base      :      30000. kBytes
   nonlr-proj:       4247. kBytes
   fftplans  :       3225. kBytes
   grid      :       8388. kBytes
   one-center:        342. kBytes
   wavefun   :     478811. kBytes
 
     INWAV:  cpu time    0.00: real time    0.00
 initial charge density was supplied:
 number of electron     398.9999396 magnetization      -0.0000017
 keeping initial charge density in first step


--------------------------------------------------------------------------------------------------------


 Maximum index for non-local projection operator          321
 Maximum index for augmentation-charges          444 (set IRDMAX)


--------------------------------------------------------------------------------------------------------


 First call to EWALD:  gamma=   0.141
 Maximum number of real-space cells 3x 3x 3
 Maximum number of reciprocal cells 3x 3x 3

 FEWALD executed in parallel
    FEWALD:  cpu time    0.02: real time    0.02


----------------------------------------- Iteration    1(   1)  ---------------------------------------


    POTLOK:  cpu time    0.14: real time    0.14
    SETDIJ:  cpu time    0.03: real time    0.03
     EDDAV:  cpu time  414.18: real time  417.64
       DOS:  cpu time    0.06: real time    0.06
    --------------------------------------------
      LOOP:  cpu time  414.41: real time  417.88

 eigenvalue-minimisations  :134046
 total energy-change (2. order) : 0.2631045E+04  (-0.1393564E+05)
 number of electron     398.9999396 magnetization      -0.0000017
 augmentation part      398.9999396 magnetization      -0.0000017

 Free energy of the ion-electron system (eV)
  ---------------------------------------------------
  alpha Z        PSCENC =       343.03121970
  Ewald energy   TEWEN  =    -15544.68203307
  -Hartree energ DENC   =     -8375.25570582
  -exchange      EXHF   =         0.00000000
  -V(xc)+E(xc)   XCENC  =       404.43140070
  PAW double counting   =     29175.36750879   -28475.23686646
  entropy T*S    EENTRO =        -0.41988443
  eigenvalues    EBANDS =       274.01188972
  atomic energy  EATOM  =     24829.79708954
  ---------------------------------------------------
  free energy    TOTEN  =      2631.04461866 eV

  energy without entropy =     2631.46450309  energy(sigma->0) =     2631.25456088


--------------------------------------------------------------------------------------------------------




----------------------------------------- Iteration    1(   2)  ---------------------------------------


     EDDAV:  cpu time  450.61: real time  454.34
       DOS:  cpu time    0.06: real time    0.06
    --------------------------------------------
      LOOP:  cpu time  450.67: real time  454.42

 eigenvalue-minimisations  :148725
 total energy-change (2. order) :-0.2669731E+04  (-0.2505883E+04)
 number of electron     398.9999396 magnetization      -0.0000017
 augmentation part      398.9999396 magnetization      -0.0000017

 Free energy of the ion-electron system (eV)
  ---------------------------------------------------
  alpha Z        PSCENC =       343.03121970
  Ewald energy   TEWEN  =    -15544.68203307
  -Hartree energ DENC   =     -8375.25570582
  -exchange      EXHF   =         0.00000000
  -V(xc)+E(xc)   XCENC  =       404.43140070
  PAW double counting   =     29175.36750879   -28475.23686646
  entropy T*S    EENTRO =        -0.10087537
  eigenvalues    EBANDS =     -2396.03812950
  atomic energy  EATOM  =     24829.79708954
  ---------------------------------------------------
  free energy    TOTEN  =       -38.68639149 eV

  energy without entropy =      -38.58551613  energy(sigma->0) =      -38.63595381


--------------------------------------------------------------------------------------------------------




----------------------------------------- Iteration    1(   3)  ---------------------------------------


     EDDAV:  cpu time  503.46: real time  506.37
       DOS:  cpu time    0.06: real time    0.07
    --------------------------------------------
      LOOP:  cpu time  503.53: real time  506.46

 eigenvalue-minimisations  :171855
 total energy-change (2. order) :-0.3778945E+03  (-0.3722419E+03)
 number of electron     398.9999396 magnetization      -0.0000017
 augmentation part      398.9999396 magnetization      -0.0000017

 Free energy of the ion-electron system (eV)
  ---------------------------------------------------
  alpha Z        PSCENC =       343.03121970
  Ewald energy   TEWEN  =    -15544.68203307
  -Hartree energ DENC   =     -8375.25570582
  -exchange      EXHF   =         0.00000000
  -V(xc)+E(xc)   XCENC  =       404.43140070
  PAW double counting   =     29175.36750879   -28475.23686646
  entropy T*S    EENTRO =        -0.13133690
  eigenvalues    EBANDS =     -2773.90220130
  atomic energy  EATOM  =     24829.79708954
  ---------------------------------------------------
  free energy    TOTEN  =      -416.58092483 eV

  energy without entropy =     -416.44958793  energy(sigma->0) =     -416.51525638


--------------------------------------------------------------------------------------------------------




----------------------------------------- Iteration    1(   4)  ---------------------------------------


     EDDAV:  cpu time  513.35: real time  515.96
       DOS:  cpu time    0.07: real time    0.07
    --------------------------------------------
      LOOP:  cpu time  513.42: real time  516.04

 eigenvalue-minimisations  :173988
 total energy-change (2. order) :-0.2355594E+02  (-0.2349261E+02)
 number of electron     398.9999396 magnetization      -0.0000017
 augmentation part      398.9999396 magnetization      -0.0000017

 Free energy of the ion-electron system (eV)
  ---------------------------------------------------
  alpha Z        PSCENC =       343.03121970
  Ewald energy   TEWEN  =    -15544.68203307
  -Hartree energ DENC   =     -8375.25570582
  -exchange      EXHF   =         0.00000000
  -V(xc)+E(xc)   XCENC  =       404.43140070
  PAW double counting   =     29175.36750879   -28475.23686646
  entropy T*S    EENTRO =        -0.13201964
  eigenvalues    EBANDS =     -2797.45745816
  atomic energy  EATOM  =     24829.79708954
  ---------------------------------------------------
  free energy    TOTEN  =      -440.13686442 eV

  energy without entropy =     -440.00484478  energy(sigma->0) =     -440.07085460


--------------------------------------------------------------------------------------------------------




----------------------------------------- Iteration    1(   5)  ---------------------------------------


     EDDAV:  cpu time  534.91: real time  537.61
       DOS:  cpu time    0.07: real time    0.07
    --------------------------------------------
      LOOP:  cpu time  534.98: real time  537.69

 eigenvalue-minimisations  :182007
 total energy-change (2. order) :-0.9714164E+00  (-0.9711027E+00)
 number of electron     398.9999396 magnetization      -0.0000017
 augmentation part      398.9999396 magnetization      -0.0000017

 Free energy of the ion-electron system (eV)
  ---------------------------------------------------
  alpha Z        PSCENC =       343.03121970
  Ewald energy   TEWEN  =    -15544.68203307
  -Hartree energ DENC   =     -8375.25570582
  -exchange      EXHF   =         0.00000000
  -V(xc)+E(xc)   XCENC  =       404.43140070
  PAW double counting   =     29175.36750879   -28475.23686646
  entropy T*S    EENTRO =        -0.13202488
  eigenvalues    EBANDS =     -2798.42886936
  atomic energy  EATOM  =     24829.79708954
  ---------------------------------------------------
  free energy    TOTEN  =      -441.10828087 eV

  energy without entropy =     -440.97625599  energy(sigma->0) =     -441.04226843


--------------------------------------------------------------------------------------------------------




----------------------------------------- Iteration    1(   6)  ---------------------------------------


     EDDAV:  cpu time  590.49: real time  593.52
       DOS:  cpu time    0.06: real time    0.06
    --------------------------------------------
      LOOP:  cpu time  590.56: real time  593.59

 eigenvalue-minimisations  :206712
 total energy-change (2. order) :-0.2725824E-01  (-0.2725655E-01)
 number of electron     398.9999396 magnetization      -0.0000017
 augmentation part      398.9999396 magnetization      -0.0000017

 Free energy of the ion-electron system (eV)
  ---------------------------------------------------
  alpha Z        PSCENC =       343.03121970
  Ewald energy   TEWEN  =    -15544.68203307
  -Hartree energ DENC   =     -8375.25570582
  -exchange      EXHF   =         0.00000000
  -V(xc)+E(xc)   XCENC  =       404.43140070
  PAW double counting   =     29175.36750879   -28475.23686646
  entropy T*S    EENTRO =        -0.13202601
  eigenvalues    EBANDS =     -2798.45612647
  atomic energy  EATOM  =     24829.79708954
  ---------------------------------------------------
  free energy    TOTEN  =      -441.13553911 eV

  energy without entropy =     -441.00351310  energy(sigma->0) =     -441.06952610


--------------------------------------------------------------------------------------------------------




----------------------------------------- Iteration    1(   7)  ---------------------------------------


     EDDAV:  cpu time  529.84: real time  531.02
       DOS:  cpu time    0.06: real time    0.06
    --------------------------------------------
      LOOP:  cpu time  529.92: real time  531.12

 eigenvalue-minimisations  :175761
 total energy-change (2. order) :-0.3527750E-03  (-0.3527597E-03)
 number of electron     398.9999396 magnetization      -0.0000017
 augmentation part      398.9999396 magnetization      -0.0000017

 Free energy of the ion-electron system (eV)
  ---------------------------------------------------
  alpha Z        PSCENC =       343.03121970
  Ewald energy   TEWEN  =    -15544.68203307
  -Hartree energ DENC   =     -8375.25570582
  -exchange      EXHF   =         0.00000000
  -V(xc)+E(xc)   XCENC  =       404.43140070
  PAW double counting   =     29175.36750879   -28475.23686646
  entropy T*S    EENTRO =        -0.13202604
  eigenvalues    EBANDS =     -2798.45647921
  atomic energy  EATOM  =     24829.79708954
  ---------------------------------------------------
  free energy    TOTEN  =      -441.13589188 eV

  energy without entropy =     -441.00386584  energy(sigma->0) =     -441.06987886


--------------------------------------------------------------------------------------------------------




----------------------------------------- Iteration    1(   8)  ---------------------------------------


     EDDAV:  cpu time  417.98: real time  418.75
       DOS:  cpu time    0.06: real time    0.06
    --------------------------------------------
      LOOP:  cpu time  418.05: real time  418.83

 eigenvalue-minimisations  :123480
 total energy-change (2. order) :-0.7816343E-05  (-0.7815069E-05)
 number of electron     398.9999396 magnetization      -0.0000017
 augmentation part      398.9999396 magnetization      -0.0000017

 Free energy of the ion-electron system (eV)
  ---------------------------------------------------
  alpha Z        PSCENC =       343.03121970
  Ewald energy   TEWEN  =    -15544.68203307
  -Hartree energ DENC   =     -8375.25570582
  -exchange      EXHF   =         0.00000000
  -V(xc)+E(xc)   XCENC  =       404.43140070
  PAW double counting   =     29175.36750879   -28475.23686646
  entropy T*S    EENTRO =        -0.13202605
  eigenvalues    EBANDS =     -2798.45648703
  atomic energy  EATOM  =     24829.79708954
  ---------------------------------------------------
  free energy    TOTEN  =      -441.13589970 eV

  energy without entropy =     -441.00387365  energy(sigma->0) =     -441.06988668


--------------------------------------------------------------------------------------------------------




 average (electrostatic) potential at core
  the test charge radii are     0.6991  0.7536  0.5201  1.1541  1.1875
  (the norm of the test charge is              1.0000)
       1 -57.5387       2 -57.5387       3 -57.5387       4 -57.5387       5 -57.5387
       6 -57.5387       7 -57.5387       8 -57.5387       9 -69.6006      10 -69.6006
      11 -69.6005      12 -69.6005      13 -69.6005      14 -69.6005      15 -69.6005
      16 -69.6005      17 -35.4035      18 -35.4035      19 -35.4035      20 -35.4035
      21 -35.4035      22 -35.4035      23 -35.4035      24 -35.4035      25 -35.3885
      26 -35.3885      27 -35.3884      28 -35.3884      29 -35.3885      30 -35.3885
      31 -35.3885      32 -35.3885      33 -35.3922      34 -35.3922      35 -35.3922
      36 -35.3922      37 -35.3922      38 -35.3922      39 -35.3922      40 -35.3922
      41 -37.8446      42 -37.8446      43 -37.8446      44 -37.8446      45 -37.8446
      46 -37.8446      47 -37.8446      48 -37.8446      49 -37.8385      50 -37.8385
      51 -37.8385      52 -37.8385      53 -37.8385      54 -37.8385      55 -37.8385
[...]
   -.117E+02 -.407E-01 -.158E+02   0.119E+02 0.391E-01 0.161E+02   -.927E-01 0.268E-03 -.332E+00   -.616E-01 0.123E-02 0.391E-01
   -.247E+01 0.273E-01 -.383E+01   0.305E+01 -.257E-01 0.361E+01   -.638E+00 -.425E-02 0.348E+00   0.282E-01 -.170E-03 -.794E-01
   -.247E+01 0.274E-01 -.383E+01   0.305E+01 -.257E-01 0.361E+01   -.638E+00 -.425E-02 0.348E+00   0.283E-01 -.171E-03 -.792E-01
   -.247E+01 0.271E-01 -.383E+01   0.305E+01 -.257E-01 0.361E+01   -.638E+00 -.421E-02 0.348E+00   0.274E-01 0.464E-04 -.793E-01
   -.247E+01 0.271E-01 -.383E+01   0.305E+01 -.257E-01 0.361E+01   -.638E+00 -.421E-02 0.348E+00   0.288E-01 0.485E-04 -.791E-01
   -.247E+01 0.273E-01 -.383E+01   0.305E+01 -.257E-01 0.361E+01   -.638E+00 -.425E-02 0.348E+00   0.280E-01 -.169E-03 -.794E-01
   -.247E+01 0.274E-01 -.383E+01   0.305E+01 -.257E-01 0.361E+01   -.638E+00 -.425E-02 0.348E+00   0.279E-01 -.169E-03 -.792E-01
   -.247E+01 0.271E-01 -.383E+01   0.305E+01 -.257E-01 0.361E+01   -.638E+00 -.421E-02 0.348E+00   0.286E-01 0.473E-04 -.793E-01
   -.247E+01 0.271E-01 -.383E+01   0.305E+01 -.257E-01 0.361E+01   -.638E+00 -.421E-02 0.348E+00   0.271E-01 0.503E-04 -.790E-01
 -----------------------------------------------------------------------------------------------
   -.621E+02 -.487E-01 -.839E+01   -.426E-12 0.153E-12 0.334E-12   0.621E+02 -.597E-01 0.830E+01   -.853E-01 0.819E-01 -.211E-01
 
 
 POSITION                                       TOTAL-FORCE (eV/Angst)
 -----------------------------------------------------------------------------------
      5.63919     12.54736      6.27352         0.010615      0.014980     -0.079845
      5.59952     12.54721     12.57044         0.010615      0.014980     -0.079845
      5.63911      6.27347      6.27352         0.010616      0.014965     -0.079836
      5.59944      6.27332     12.57044         0.010616      0.014965     -0.079836
     11.92931     12.54736      6.27352         0.010615      0.014980     -0.079845
     11.88964     12.54721     12.57044         0.010615      0.014980     -0.079845
     11.92923      6.27347      6.27352         0.010616      0.014965     -0.079836
     11.88956      6.27332     12.57044         0.010616      0.014965     -0.079836
      0.84668      6.27287      0.16986        -0.071505     -0.016526     -0.015444
      0.80702      6.27272      6.46678        -0.071505     -0.016526     -0.015444
      0.84676     12.54676      0.16986        -0.071510     -0.016460     -0.015437
      0.80709     12.54661      6.46678        -0.071510     -0.016460     -0.015437
      7.13680      6.27287      0.16986        -0.071505     -0.016526     -0.015444
      7.09714      6.27272      6.46678        -0.071505     -0.016526     -0.015444
      7.13688     12.54676      0.16986        -0.071510     -0.016460     -0.015437
      7.09721     12.54661      6.46678        -0.071510     -0.016460     -0.015437
      5.40796      6.27224      5.19380         0.025519     -0.000275      0.052719
      5.36829      6.27209     11.49071         0.025519     -0.000275      0.052719
      5.40804     12.54613      5.19380         0.025517     -0.000274      0.052717
      5.36837     12.54598     11.49071         0.025517     -0.000274      0.052717
     11.69808      6.27224      5.19380         0.025519     -0.000275      0.052719
     11.65841      6.27209     11.49071         0.025519     -0.000275      0.052719
     11.69816     12.54613      5.19380         0.025517     -0.000274      0.052717
     11.65849     12.54598     11.49071         0.025517     -0.000274      0.052717
      5.25658      0.90271      0.44753        -0.004346      0.014862      0.012209
      5.21691      0.90255      6.74445        -0.004346      0.014862      0.012209
      5.25666      7.17660      0.44753        -0.004346      0.014863      0.012211
      5.21699      7.17644      6.74445        -0.004346      0.014863      0.012211
     11.54670      0.90271      0.44753        -0.004346      0.014862      0.012209
     11.50703      0.90255      6.74445        -0.004346      0.014862      0.012209
     11.54678      7.17660      0.44753        -0.004346      0.014863      0.012211
     11.50711      7.17644      6.74445        -0.004346      0.014863      0.012211
      5.25497      5.37333      0.45016        -0.006970     -0.025254      0.017562
      5.21531      5.37318      6.74708        -0.006970     -0.025254      0.017562
      5.25505     11.64722      0.45016        -0.006974     -0.025267      0.017568
      5.21538     11.64707      6.74708        -0.006974     -0.025267      0.017568
     11.54509      5.37333      0.45016        -0.006970     -0.025254      0.017562
     11.50543      5.37318      6.74708        -0.006970     -0.025254      0.017562
     11.54517     11.64722      0.45016        -0.006974     -0.025267      0.017568
     11.50550     11.64707      6.74708        -0.006974     -0.025267      0.017568
      1.26266      0.84333      6.04527         0.029271      0.069217      0.031546
      1.22299      0.84317     12.34218         0.029271      0.069217      0.031546
      1.26274      7.11722      6.04527         0.029281      0.069240      0.031539
      1.22307      7.11706     12.34218         0.029281      0.069240      0.031539
      7.55278      0.84333      6.04527         0.029271      0.069217      0.031546
      7.51311      0.84317     12.34218         0.029271      0.069217      0.031546
      7.55286      7.11722      6.04527         0.029281      0.069240      0.031539
      7.51319      7.11706     12.34218         0.029281      0.069240      0.031539
      1.26134      5.42572      6.04746         0.024710     -0.056076      0.037922
      1.22168      5.42557     12.34438         0.024710     -0.056076      0.037922
      1.26142     11.69961      6.04746         0.024725     -0.056108      0.037911
      1.22175     11.69946     12.34438         0.024725     -0.056108      0.037911
      7.55146      5.42572      6.04746         0.024710     -0.056076      0.037922
      7.51180      5.42557     12.34438         0.024710     -0.056076      0.037922
      7.55154     11.69961      6.04746         0.024725     -0.056108      0.037911
      7.51187     11.69946     12.34438         0.024725     -0.056108      0.037911
      1.11625     12.54766      1.18688         0.035561      0.000868     -0.004679
      1.07658     12.54751      7.48380         0.035561      0.000868     -0.004679
      1.11617      6.27377      1.18688         0.035563      0.000874     -0.004679
      1.07650      6.27362      7.48380         0.035563      0.000874     -0.004679
      7.40637     12.54766      1.18688         0.035561      0.000868     -0.004679
      7.36670     12.54751      7.48380         0.035561      0.000868     -0.004679
      7.40629      6.27377      1.18688         0.035563      0.000874     -0.004679
      7.36662      6.27362      7.48380         0.035563      0.000874     -0.004679
      3.01879      3.13684      3.05372        -0.112016      0.000729     -0.077217
      2.97912      3.13668      9.35064        -0.112016      0.000729     -0.077217
      3.01887      9.41073      3.05372        -0.112023      0.000738     -0.077226
      2.97920      9.41057      9.35064        -0.112023      0.000738     -0.077226
      9.30891      3.13684      3.05372        -0.112016      0.000729     -0.077217
      9.26924      3.13668      9.35064        -0.112016      0.000729     -0.077217
      9.30899      9.41073      3.05372        -0.112023      0.000738     -0.077226
      9.26932      9.41057      9.35064        -0.112023      0.000738     -0.077226
      2.59256      3.13625      6.13962         0.074896     -0.000270      0.001854
      2.55290      3.13610     12.43653         0.074896     -0.000270      0.001854
      2.59264      9.41014      6.13962         0.074893     -0.000276      0.001857
      2.55297      9.40999     12.43653         0.074893     -0.000276      0.001857
      8.88268      3.13625      6.13962         0.074896     -0.000270      0.001854
      8.84302      3.13610     12.43653         0.074896     -0.000270      0.001854
      8.88276      9.41014      6.13962         0.074893     -0.000276      0.001857
      8.84309      9.40999     12.43653         0.074893     -0.000276      0.001857
      2.77928     -0.00007      3.18912         0.022289      0.000267     -0.021562
      2.73961     -0.00023      9.48603         0.022289      0.000267     -0.021562
      2.77936      6.27382      3.18912         0.022289      0.000197     -0.021566
      2.73969      6.27366      9.48603         0.022289      0.000197     -0.021566
      9.06940     -0.00007      3.18912         0.022289      0.000267     -0.021562
      9.02973     -0.00023      9.48603         0.022289      0.000267     -0.021562
      9.06948      6.27382      3.18912         0.022289      0.000197     -0.021566
      9.02981      6.27366      9.48603         0.022289      0.000197     -0.021566
      6.05407      3.13834      2.70648        -0.028037     -0.002504      0.044938
      6.01440      3.13819      9.00339        -0.028037     -0.002504      0.044938
      6.05414      9.41223      2.70648        -0.028018     -0.002509      0.044938
      6.01448      9.41208      9.00339        -0.028018     -0.002509      0.044938
     12.34419      3.13834      2.70648        -0.028037     -0.002504      0.044938
     12.30452      3.13819      9.00339        -0.028037     -0.002504      0.044938
     12.34426      9.41223      2.70648        -0.028018     -0.002509      0.044938
     12.30460      9.41208      9.00339        -0.028018     -0.002509      0.044938
 -----------------------------------------------------------------------------------
    total drift:                               -0.099679     -0.026538     -0.107322


--------------------------------------------------------------------------------------------------------



  FREE ENERGIE OF THE ION-ELECTRON SYSTEM (eV)
  ---------------------------------------------------
  free  energy   TOTEN  =      -441.13589970 eV

  energy  without entropy=     -441.00387365  energy(sigma->0) =     -441.06988668
 


--------------------------------------------------------------------------------------------------------


    POTLOK:  cpu time    0.19: real time    0.19


--------------------------------------------------------------------------------------------------------


 writing wavefunctions
     LOOP+:  cpu time 5029.79: real time 5096.66
    4ORBIT:  cpu time    0.00: real time    0.00
 


 total charge     
 
# of ion     s       p       d       tot
----------------------------------------
  1        0.832   1.786   0.000   2.619
  2        0.832   1.786   0.000   2.619
  3        0.832   1.787   0.000   2.619
  4        0.832   1.786   0.000   2.619
  5        0.832   1.787   0.000   2.619
  6        0.832   1.787   0.000   2.619
  7        0.832   1.787   0.000   2.619
  8        0.832   1.787   0.000   2.619
  9        1.221   2.753   0.000   3.974
 10        1.221   2.753   0.000   3.974
 11        1.221   2.753   0.000   3.974
 12        1.221   2.753   0.000   3.974
 13        1.221   2.753   0.000   3.974
 14        1.221   2.753   0.000   3.974
 15        1.221   2.753   0.000   3.974
 16        1.221   2.753   0.000   3.974
 17        0.617   0.043   0.000   0.661
 18        0.617   0.043   0.000   0.661
 19        0.617   0.043   0.000   0.661
 20        0.617   0.043   0.000   0.661
 21        0.617   0.043   0.000   0.661
 22        0.617   0.043   0.000   0.661
 23        0.617   0.043   0.000   0.661
 24        0.617   0.043   0.000   0.661
 25        0.618   0.044   0.000   0.662
 26        0.618   0.044   0.000   0.662
 27        0.618   0.044   0.000   0.662
 28        0.618   0.044   0.000   0.662
 29        0.618   0.044   0.000   0.662
 30        0.618   0.044   0.000   0.662
 31        0.618   0.044   0.000   0.662
 32        0.618   0.044   0.000   0.662
 33        0.618   0.044   0.000   0.663
 34        0.618   0.044   0.000   0.663
 35        0.618   0.044   0.000   0.663
 36        0.618   0.044   0.000   0.663
 37        0.618   0.044   0.000   0.663
 38        0.618   0.044   0.000   0.663
 39        0.618   0.044   0.000   0.663
 40        0.618   0.044   0.000   0.663
 41        0.585   0.074   0.000   0.659
 42        0.585   0.074   0.000   0.659
 43        0.585   0.074   0.000   0.659
 44        0.585   0.074   0.000   0.659
 45        0.585   0.074   0.000   0.659
 46        0.585   0.074   0.000   0.659
 47        0.585   0.074   0.000   0.659
 48        0.585   0.074   0.000   0.659
 49        0.584   0.074   0.000   0.658
 50        0.584   0.074   0.000   0.658
 51        0.584   0.074   0.000   0.658
 52        0.584   0.074   0.000   0.658
 53        0.584   0.074   0.000   0.658
 54        0.584   0.074   0.000   0.658
 55        0.584   0.074   0.000   0.658
 56        0.584   0.074   0.000   0.658
 57        0.581   0.073   0.000   0.654
 58        0.581   0.073   0.000   0.654
 59        0.581   0.073   0.000   0.654
 60        0.581   0.073   0.000   0.654
 61        0.581   0.073   0.000   0.654
 62        0.581   0.073   0.000   0.654
 63        0.581   0.073   0.000   0.654
 64        0.581   0.073   0.000   0.654
 65        1.455   0.555   9.834  11.843
 66        1.455   0.555   9.834  11.843
 67        1.455   0.555   9.834  11.843
 68        1.455   0.555   9.834  11.843
 69        1.455   0.555   9.834  11.843
 70        1.455   0.555   9.834  11.843
 71        1.455   0.555   9.834  11.843
 72        1.455   0.555   9.834  11.843
 73        1.514   2.775   0.009   4.298
 74        1.514   2.775   0.009   4.298
 75        1.514   2.775   0.009   4.298
 76        1.514   2.775   0.009   4.298
 77        1.514   2.775   0.009   4.298
 78        1.514   2.775   0.009   4.298
 79        1.514   2.775   0.009   4.298
 80        1.514   2.775   0.009   4.298
 81        1.514   2.774   0.009   4.296
 82        1.514   2.774   0.009   4.296
 83        1.514   2.774   0.009   4.296
 84        1.514   2.774   0.009   4.296
 85        1.514   2.774   0.009   4.296
 86        1.514   2.774   0.009   4.296
 87        1.514   2.774   0.009   4.296
 88        1.514   2.774   0.009   4.296
 89        1.515   2.760   0.008   4.283
 90        1.515   2.760   0.008   4.283
 91        1.515   2.760   0.008   4.283
 92        1.515   2.760   0.008   4.283
 93        1.515   2.760   0.008   4.283
 94        1.515   2.760   0.008   4.283
 95        1.515   2.760   0.008   4.283
 96        1.515   2.760   0.008   4.283
------------------------------------------------
tot       93.236 110.040  78.886 282.161
 


 magnetization (x)
 
# of ion     s       p       d       tot
----------------------------------------
  1       -0.000   0.000   0.000   0.000
  2       -0.000   0.000   0.000   0.000
  3       -0.000   0.000   0.000   0.000
  4       -0.000   0.000   0.000   0.000
  5       -0.000  -0.000   0.000  -0.000
  6       -0.000   0.000   0.000   0.000
  7       -0.000   0.000   0.000   0.000
  8       -0.000   0.000   0.000   0.000
  9       -0.000  -0.000   0.000  -0.000
 10       -0.000  -0.000   0.000  -0.000
 11       -0.000  -0.000   0.000  -0.000
 12        0.000  -0.000   0.000  -0.000
 13        0.000  -0.000   0.000  -0.000
 14       -0.000  -0.000   0.000  -0.000
 15       -0.000  -0.000   0.000  -0.000
 16       -0.000  -0.000   0.000  -0.000
 17        0.000   0.000   0.000   0.000
 18        0.000   0.000   0.000   0.000
 19        0.000   0.000   0.000   0.000
 20        0.000   0.000   0.000   0.000
 21        0.000   0.000   0.000   0.000
 22        0.000  -0.000   0.000   0.000
 23        0.000  -0.000   0.000   0.000
 24        0.000   0.000   0.000   0.000
 25        0.000  -0.000   0.000   0.000
 26        0.000  -0.000   0.000   0.000
 27        0.000  -0.000   0.000   0.000
 28        0.000  -0.000   0.000   0.000
 29        0.000   0.000   0.000   0.000
 30        0.000  -0.000   0.000   0.000
 31        0.000   0.000   0.000   0.000
 32        0.000  -0.000   0.000   0.000
 33        0.000  -0.000   0.000   0.000
 34       -0.000  -0.000   0.000  -0.000
 35        0.000  -0.000   0.000   0.000
 36        0.000  -0.000   0.000   0.000
 37        0.000   0.000   0.000   0.000
 38        0.000  -0.000   0.000   0.000
 39        0.000  -0.000   0.000   0.000
 40        0.000  -0.000   0.000   0.000
 41       -0.000  -0.000   0.000  -0.000
 42       -0.000  -0.000   0.000  -0.000
 43        0.000  -0.000   0.000   0.000
 44       -0.000  -0.000   0.000  -0.000
 45        0.000  -0.000   0.000  -0.000
 46        0.000  -0.000   0.000   0.000
 47        0.000  -0.000   0.000  -0.000
 48        0.000  -0.000   0.000   0.000
 49        0.000  -0.000   0.000   0.000
 50       -0.000  -0.000   0.000  -0.000
 51        0.000  -0.000   0.000   0.000
 52        0.000  -0.000   0.000   0.000
 53        0.000  -0.000   0.000   0.000
 54        0.000  -0.000   0.000   0.000
 55        0.000  -0.000   0.000   0.000
 56        0.000  -0.000   0.000   0.000
 57        0.000  -0.000   0.000   0.000
 58        0.000  -0.000   0.000   0.000
 59        0.000  -0.000   0.000   0.000
 60        0.000  -0.000   0.000   0.000
 61        0.000  -0.000   0.000   0.000
 62        0.000  -0.000   0.000   0.000
 63        0.000  -0.000   0.000   0.000
 64        0.000  -0.000   0.000   0.000
 65        0.000   0.000   0.000   0.000
 66        0.000   0.000  -0.000   0.000
 67        0.000   0.000   0.000   0.000
 68        0.000   0.000   0.000   0.000
 69        0.000   0.000   0.000   0.000
 70        0.000   0.000   0.000   0.000
 71        0.000   0.000   0.000   0.000
 72        0.000   0.000  -0.000   0.000
 73       -0.000  -0.000  -0.000  -0.000
 74       -0.000  -0.000  -0.000  -0.000
 75       -0.000  -0.000   0.000  -0.000
 76       -0.000  -0.000   0.000  -0.000
 77       -0.000  -0.000   0.000  -0.000
 78       -0.000  -0.000  -0.000  -0.000
 79       -0.000  -0.000  -0.000  -0.000
 80       -0.000  -0.000   0.000  -0.000
 81       -0.000   0.000  -0.000  -0.000
 82       -0.000  -0.000   0.000  -0.000
 83       -0.000   0.000  -0.000  -0.000
 84       -0.000  -0.000  -0.000  -0.000
 85       -0.000  -0.000  -0.000  -0.000
 86       -0.000  -0.000  -0.000  -0.000
 87       -0.000   0.000  -0.000  -0.000
 88       -0.000   0.000  -0.000  -0.000
 89       -0.000  -0.000   0.000  -0.000
 90       -0.000  -0.000  -0.000  -0.000
 91        0.000  -0.000   0.000   0.000
 92       -0.000  -0.000  -0.000  -0.000
 93       -0.000  -0.000  -0.000  -0.000
 94        0.000  -0.000   0.000   0.000
 95       -0.000  -0.000  -0.000  -0.000
 96       -0.000  -0.000  -0.000  -0.000
------------------------------------------------
tot        0.000  -0.000   0.000  -0.000
 

 total amount of memory used by VASP on root node   525013. kBytes
========================================================================

   base      :      30000. kBytes
   nonlr-proj:       4247. kBytes
   fftplans  :       3225. kBytes
   grid      :       8388. kBytes
   one-center:        342. kBytes
   wavefun   :     478811. kBytes
 
  
  
 General timing and accounting informations for this job:
 ========================================================
  
                  Total CPU time used (sec):     5485.053
                            User time (sec):     3783.757
                          System time (sec):     1701.296
                         Elapsed time (sec):     5560.630
  
                   Maximum memory used (kb):     1003432.
                   Average memory used (kb):           0.
  
                          Minor page faults:        43508
                          Major page faults:           25
                 Voluntary context switches:        16604
