 vasp.5.3.5 31Mar14 (build May 02 2014 07:30:07) complex                        
  
 executed on             LinuxIFC date 2015.08.11  23:20:40
 running on  144 total cores
 distrk:  each k-point on  144 cores,    1 groups
 distr:  one band on NCORES_PER_BAND=  12 cores,   12 groups


--------------------------------------------------------------------------------------------------------


 INCAR:
 POTCAR:    PAW C 22Mar2012                       
 POTCAR:    PAW N 21Mar2012                       
 POTCAR:    PAW H 06May1998                       
 POTCAR:    PAW Pb_d 30Apr1998                    
 POTCAR:    PAW I 03Oct2001                       
 POTCAR:    PAW C 22Mar2012                       
   VRHFIN =C: s2p2                                                              
   LEXCH  = CA                                                                  
   EATOM  =   146.6860 eV,   10.7811 Ry                                         
                                                                                
   TITEL  = PAW C 22Mar2012                                                     
   LULTRA =        F    use ultrasoft PP ?                                      
   IUNSCR =        1    unscreen: 0-lin 1-nonlin 2-no                           
   RPACOR =    1.200    partial core radius                                     
   POMASS =   12.011; ZVAL   =    4.000    mass and valenz                      
   RCORE  =    1.500    outmost cutoff radius                                   
   RWIGS  =    1.630; RWIGS  =    0.863    wigner-seitz radius (au A)           
   ENMAX  =  400.000; ENMIN  =  300.000 eV                                      
   ICORE  =        2    local potential                                         
   LCOR   =        T    correct aug charges                                     
   LPAW   =        T    paw PP                                                  
   EAUG   =  644.873                                                            
   DEXC   =    0.000                                                            
   RMAX   =    1.529    core radius for proj-oper                               
   RAUG   =    1.300    factor for augmentation sphere                          
   RDEP   =    1.501    radius for radial grids                                 
   RDEPT  =    1.300    core radius for aug-charge                              
                                                                                
   Atomic configuration                                                         
    4 entries                                                                   
     n  l   j            E        occ.                                          
     1  0  0.50      -270.6511   2.0000                                         
     2  0  0.50       -13.6383   2.0000                                         
     2  1  0.50        -5.4212   2.0000                                         
     3  2  1.50        -5.4423   0.0000                                         
   Description                                                                  
     l       E           TYP  RCUT    TYP  RCUT                                 
     0    -13.6382841     23  1.200                                             
     0     -7.9195854     23  1.200                                             
     1     -5.4211532     23  1.500                                             
     1     34.0145650     23  1.500                                             
     2     -5.4423304      7  1.500                                             
  local pseudopotential read in
  partial core-charges read in
  partial kinetic energy density read in
  kinetic energy density of atom read in
  atomic valenz-charges read in
  non local Contribution for L=           0  read in
    real space projection operators read in
  non local Contribution for L=           0  read in
    real space projection operators read in
  non local Contribution for L=           1  read in
    real space projection operators read in
  non local Contribution for L=           1  read in
    real space projection operators read in
    PAW grid and wavefunctions read in
 
   number of l-projection  operators is LMAX  =           4
   number of lm-projection operators is LMMAX =           8
 
 POTCAR:    PAW N 21Mar2012                       
   VRHFIN =N: s2p3                                                              
   LEXCH  = CA                                                                  
   EATOM  =   263.8737 eV,   19.3942 Ry                                         
                                                                                
   TITEL  = PAW N 21Mar2012                                                     
   LULTRA =        F    use ultrasoft PP ?                                      
   IUNSCR =        1    unscreen: 0-lin 1-nonlin 2-no                           
   RPACOR =    1.200    partial core radius                                     
   POMASS =   14.001; ZVAL   =    5.000    mass and valenz                      
   RCORE  =    1.500    outmost cutoff radius                                   
   RWIGS  =    1.400; RWIGS  =    0.741    wigner-seitz radius (au A)           
   ENMAX  =  400.000; ENMIN  =  300.000 eV                                      
   ICORE  =        2    local potential                                         
   LCOR   =        T    correct aug charges                                     
   LPAW   =        T    paw PP                                                  
   EAUG   =  555.011                                                            
   DEXC   =    0.000                                                            
   RMAX   =    1.529    core radius for proj-oper                               
   RAUG   =    1.300    factor for augmentation sphere                          
   RDEP   =    1.514    radius for radial grids                                 
   RDEPT  =    1.349    core radius for aug-charge                              
                                                                                
   Atomic configuration                                                         
    4 entries                                                                   
     n  l   j            E        occ.                                          
     1  0  0.50      -381.2515   2.0000                                         
     2  0  0.50       -18.4129   2.0000                                         
     2  1  0.50        -7.2430   3.0000                                         
     3  2  1.50        -8.1635   0.0000                                         
   Description                                                                  
     l       E           TYP  RCUT    TYP  RCUT                                 
     0    -18.4129017     23  1.200                                             
     0    -13.1193851     23  1.200                                             
     1     -7.2430100     23  1.500                                             
     1      9.5240782     23  1.500                                             
     2     -8.1634956      7  1.500                                             
  local pseudopotential read in
  partial core-charges read in
  partial kinetic energy density read in
  kinetic energy density of atom read in
  atomic valenz-charges read in
  non local Contribution for L=           0  read in
    real space projection operators read in
  non local Contribution for L=           0  read in
    real space projection operators read in
  non local Contribution for L=           1  read in
    real space projection operators read in
  non local Contribution for L=           1  read in
    real space projection operators read in
    PAW grid and wavefunctions read in
 
   number of l-projection  operators is LMAX  =           4
   number of lm-projection operators is LMMAX =           8
 
 POTCAR:    PAW H 06May1998                       
   VRHFIN =H: ultrasoft test                                                    
   LEXCH  = CA                                                                  
   EATOM  =    12.1334 eV,    0.8918 Ry                                         
                                                                                
   TITEL  = PAW H 06May1998                                                     
   LULTRA =        F    use ultrasoft PP ?                                      
   IUNSCR =        0    unscreen: 0-lin 1-nonlin 2-no                           
   RPACOR =    0.000    partial core radius                                     
   POMASS =    1.000; ZVAL   =    1.000    mass and valenz                      
   RCORE  =    1.100    outmost cutoff radius                                   
   RWIGS  =    0.700; RWIGS  =    0.370    wigner-seitz radius (au A)           
   ENMAX  =  250.000; ENMIN  =  200.000 eV                                      
   RCLOC  =    0.701    cutoff for local pot                                    
   LCOR   =        T    correct aug charges                                     
   LPAW   =        T    paw PP                                                  
   EAUG   =  400.000                                                            
   RMAX   =    1.123    core radius for proj-oper                               
   RAUG   =    1.200    factor for augmentation sphere                          
   RDEP   =    1.112    radius for radial grids                                 
   RDEPT  =    0.926    core radius for aug-charge                              
                                                                                
   Atomic configuration                                                         
    2 entries                                                                   
     n  l   j            E        occ.                                          
     1  0  0.50        -6.3581   1.0000                                         
     2  1  0.50        -3.4015   0.0000                                         
   Description                                                                  
     l       E           TYP  RCUT    TYP  RCUT                                 
     0     -6.3581322     23  1.100                                             
     0      6.8029130     23  1.100                                             
     1     -4.0817478     23  1.100                                             
  local pseudopotential read in
  atomic valenz-charges read in
  non local Contribution for L=           0  read in
    real space projection operators read in
  non local Contribution for L=           0  read in
    real space projection operators read in
  non local Contribution for L=           1  read in
    real space projection operators read in
    PAW grid and wavefunctions read in
 
   number of l-projection  operators is LMAX  =           3
   number of lm-projection operators is LMMAX =           5
 
 POTCAR:    PAW Pb_d 30Apr1998                    
   VRHFIN =Pb:                                                                  
   LEXCH  = CA                                                                  
   EATOM  =  1665.7987 eV,  122.4327 Ry                                         
                                                                                
   TITEL  = PAW Pb_d 30Apr1998                                                  
   LULTRA =        F    use ultrasoft PP ?                                      
   IUNSCR =        1    unscreen: 0-lin 1-nonlin 2-no                           
   RPACOR =    2.200    partial core radius                                     
   POMASS =  207.200; ZVAL   =   14.000    mass and valenz                      
   RCORE  =    2.500    outmost cutoff radius                                   
   RWIGS  =    3.260; RWIGS  =    1.725    wigner-seitz radius (au A)           
   ENMAX  =  237.817; ENMIN  =  178.363 eV                                      
   ICORE  =        3    local potential                                         
   LCOR   =        T    correct aug charges                                     
   LPAW   =        T    paw PP                                                  
   EAUG   =  391.914                                                            
   DEXC   =    0.000                                                            
   RMAX   =    2.565    core radius for proj-oper                               
   RAUG   =    1.300    factor for augmentation sphere                          
   RDEP   =    2.643    radius for radial grids                                 
   RDEPT  =    2.092    core radius for aug-charge                              
                                                                                
   Atomic configuration                                                         
   16 entries                                                                   
     n  l   j            E        occ.                                          
     1  0  0.50    -87455.3954   2.0000                                         
     2  0  0.50    -15656.5720   2.0000                                         
     2  1  1.50    -13450.1117   6.0000                                         
     3  0  0.50     -3760.6466   2.0000                                         
     3  1  1.50     -3126.9604   6.0000                                         
     3  2  2.50     -2479.1840  10.0000                                         
     4  0  0.50      -850.7174   2.0000                                         
     4  1  1.50      -642.6418   6.0000                                         
     4  2  2.50      -401.3256  10.0000                                         
     4  3  3.50      -133.7163  14.0000                                         
     5  0  0.50      -143.6556   2.0000                                         
     5  1  1.50       -85.6774   6.0000                                         
     5  2  2.50       -21.3441  10.0000                                         
     6  0  0.50       -12.2637   2.0000                                         
     6  1  1.50        -3.7095   2.0000                                         
     5  3  2.50        -2.7212   0.0000                                         
   Description                                                                  
     l       E           TYP  RCUT    TYP  RCUT                                 
     2    -21.3440979     23  2.500                                             
     2      1.3605826     23  2.500                                             
     0    -12.2637197     23  2.500                                             
     0     13.6058260     23  2.500                                             
     1     -3.7094521     23  2.500                                             
     1     13.6058260     23  2.500                                             
     3     -1.3605826      7  2.500                                             
  local pseudopotential read in
  partial core-charges read in
  partial kinetic energy density read in
  atomic valenz-charges read in
  non local Contribution for L=           2  read in
    real space projection operators read in
  non local Contribution for L=           2  read in
    real space projection operators read in
  non local Contribution for L=           0  read in
    real space projection operators read in
  non local Contribution for L=           0  read in
    real space projection operators read in
  non local Contribution for L=           1  read in
    real space projection operators read in
  non local Contribution for L=           1  read in
    real space projection operators read in
    PAW grid and wavefunctions read in
 
   number of l-projection  operators is LMAX  =           6
   number of lm-projection operators is LMMAX =          18
 
 POTCAR:    PAW I 03Oct2001                       
   VRHFIN =I : s2p5                                                             
   LEXCH  = CA                                                                  
   EATOM  =   318.2436 eV,   23.3902 Ry                                         
                                                                                
   TITEL  = PAW I 03Oct2001                                                     
   LULTRA =        F    use ultrasoft PP ?                                      
   IUNSCR =        1    unscreen: 0-lin 1-nonlin 2-no                           
   RPACOR =    2.200    partial core radius                                     
   POMASS =  126.904; ZVAL   =    7.000    mass and valenz                      
   RCORE  =    2.300    outmost cutoff radius                                   
   RWIGS  =    2.810; RWIGS  =    1.487    wigner-seitz radius (au A)           
   ENMAX  =  175.712; ENMIN  =  131.784 eV                                      
   ICORE  =        3    local potential                                         
   LCOR   =        T    correct aug charges                                     
   LPAW   =        T    paw PP                                                  
   EAUG   =  370.139                                                            
   DEXC   =    0.000                                                            
   RMAX   =    2.359    core radius for proj-oper                               
   RAUG   =    1.300    factor for augmentation sphere                          
   RDEP   =    2.392    radius for radial grids                                 
   RDEPT  =    2.170    core radius for aug-charge                              
                                                                                
   Atomic configuration                                                         
   13 entries                                                                   
     n  l   j            E        occ.                                          
     1  0  0.50    -32782.2723   2.0000                                         
     2  0  0.50     -5071.6432   2.0000                                         
     2  1  1.50     -4559.2217   6.0000                                         
     3  0  0.50     -1023.7010   2.0000                                         
     3  1  1.50      -856.9928   6.0000                                         
     3  2  2.50      -605.7196  10.0000                                         
     4  0  0.50      -179.5701   2.0000                                         
     4  1  1.50      -127.1068   6.0000                                         
     4  2  2.50       -50.3864  10.0000                                         
     5  0  0.50       -17.6026   2.0000                                         
     5  1  0.50        -7.2430   5.0000                                         
     5  2  1.50        -6.8029   0.0000                                         
     4  3  2.50        -6.8029   0.0000                                         
   Description                                                                  
     l       E           TYP  RCUT    TYP  RCUT                                 
     0    -17.6026160     23  2.300                                             
     0    -18.9631986     23  2.300                                             
     1     -7.2430093     23  2.300                                             
     1     -4.3730304     23  2.300                                             
     2     -6.8029130     23  2.300                                             
     3     -1.3605826     23  2.300                                             
  local pseudopotential read in
  partial core-charges read in
  partial kinetic energy density read in
  atomic valenz-charges read in
  non local Contribution for L=           0  read in
    real space projection operators read in
  non local Contribution for L=           0  read in
    real space projection operators read in
  non local Contribution for L=           1  read in
    real space projection operators read in
  non local Contribution for L=           1  read in
    real space projection operators read in
  non local Contribution for L=           2  read in
    real space projection operators read in
    PAW grid and wavefunctions read in
 
   number of l-projection  operators is LMAX  =           5
   number of lm-projection operators is LMMAX =          13
 
 Optimization of the real space projectors (new method)

 maximal supplied QI-value         = 25.13
 optimisation between [QCUT,QGAM] = [ 10.05, 20.36] = [ 28.30,116.06] Ry 
 Optimized for a Real-space Cutoff    1.30 Angstroem

   l    n(q)    QCUT    max X(q) W(low)/X(q) W(high)/X(q)  e(spline) 
   0      8    10.053   112.725    0.49E-03    0.72E-03    0.18E-06
   0      8    10.053    84.246    0.49E-03    0.71E-03    0.18E-06
   1      7    10.053     4.395    0.34E-03    0.30E-03    0.19E-06
   1      7    10.053     2.668    0.25E-03    0.19E-03    0.21E-06
 Optimization of the real space projectors (new method)

 maximal supplied QI-value         = 25.13
 optimisation between [QCUT,QGAM] = [ 10.05, 20.36] = [ 28.30,116.06] Ry 
 Optimized for a Real-space Cutoff    1.46 Angstroem

   l    n(q)    QCUT    max X(q) W(low)/X(q) W(high)/X(q)  e(spline) 
   0      9    10.053    76.583    0.24E-03    0.22E-03    0.37E-06
   0      9    10.053    63.337    0.23E-03    0.22E-03    0.37E-06
   1      8    10.053     6.744    0.33E-03    0.11E-02    0.13E-05
   1      8    10.053     5.214    0.31E-03    0.98E-03    0.13E-05
 Optimization of the real space projectors (new method)

 maximal supplied QI-value         = 34.20
 optimisation between [QCUT,QGAM] = [  9.92, 20.18] = [ 27.55,114.04] Ry 
 Optimized for a Real-space Cutoff    1.26 Angstroem

   l    n(q)    QCUT    max X(q) W(low)/X(q) W(high)/X(q)  e(spline) 
   0      8     9.919    20.415    0.48E-03    0.21E-03    0.30E-06
   0      8     9.919    12.552    0.46E-03    0.21E-03    0.28E-06
   1      7     9.919     4.672    0.17E-03    0.75E-03    0.30E-06
 Optimization of the real space projectors (new method)

 maximal supplied QI-value         = 15.12
 optimisation between [QCUT,QGAM] = [ 10.13, 20.41] = [ 28.73,116.64] Ry 
 Optimized for a Real-space Cutoff    1.42 Angstroem

   l    n(q)    QCUT    max X(q) W(low)/X(q) W(high)/X(q)  e(spline) 
   2      8    10.129     3.832    0.68E-04    0.20E-03    0.43E-07
   2      8    10.129     8.557    0.31E-03    0.87E-04    0.80E-07
   0      9    10.129    20.058    0.18E-03    0.69E-04    0.52E-07
   0      9    10.129     8.581    0.26E-03    0.10E-03    0.74E-07
   1      8    10.129    32.418    0.10E-03    0.20E-03    0.14E-06
   1      8    10.129    15.589    0.88E-04    0.18E-03    0.13E-06
 Optimization of the real space projectors (new method)

 maximal supplied QI-value         = 16.25
 optimisation between [QCUT,QGAM] = [ 10.24, 20.48] = [ 29.35,117.42] Ry 
 Optimized for a Real-space Cutoff    1.42 Angstroem

   l    n(q)    QCUT    max X(q) W(low)/X(q) W(high)/X(q)  e(spline) 
   0      9    10.239   195.377    0.83E-04    0.12E-03    0.80E-07
   0      9    10.239   191.289    0.80E-04    0.11E-03    0.77E-07
   1      8    10.239   115.174    0.25E-03    0.31E-03    0.74E-07
   1      8    10.239    87.544    0.25E-03    0.30E-03    0.73E-07
   2      8    10.239     4.840    0.44E-04    0.82E-04    0.46E-07
  PAW C 22Mar2012                       :
 energy of atom  1       EATOM= -146.6860
 kinetic energy error for atom=    0.0289 (will be added to EATOM!!)
  PAW N 21Mar2012                       :
 energy of atom  2       EATOM= -263.8737
 kinetic energy error for atom=    0.0726 (will be added to EATOM!!)
  PAW H 06May1998                       :
 energy of atom  3       EATOM=  -12.1334
 kinetic energy error for atom=    0.0088 (will be added to EATOM!!)
  PAW Pb_d 30Apr1998                    :
 energy of atom  4       EATOM=-1665.7987
 kinetic energy error for atom=    0.0069 (will be added to EATOM!!)
  PAW I 03Oct2001                       :
 energy of atom  5       EATOM= -318.2436
 kinetic energy error for atom=    0.0013 (will be added to EATOM!!)
 
 
 POSCAR: MA-Pb-I (Pseudocubic)                   
  positions in direct lattice
  velocities in cartesian coordinates
 exchange correlation table for  LEXCH =        2
   RHO(1)=    0.500       N(1)  =     2000
   RHO(2)=  100.500       N(2)  =     4000
 


--------------------------------------------------------------------------------------------------------


 ion  position               nearest neighbor table
   1  0.902  1.000  0.996-   3 1.11   5 1.11   4 1.11   2 1.47
   2  0.134  1.000  0.023-   6 1.05   7 1.05   8 1.05   1 1.47
   3  0.863  1.000  0.824-   1 1.11
   4  0.835  0.145  0.071-   1 1.11
   5  0.835  0.855  0.071-   1 1.11
   6  0.206  0.136  0.960-   2 1.05
   7  0.205  0.863  0.961-   2 1.05
   8  0.183  0.000  0.182-   2 1.05
   9  0.480  0.500  0.484-  12 3.11  10 3.14  11 3.15  11 3.15  12 3.23  10 3.23
  10  0.400  0.500  0.991-   9 3.14   9 3.23
  11  0.447  0.000  0.512-   9 3.15   9 3.15
  12  0.989  0.500  0.422-   9 3.11   9 3.23
 
  LATTYP: Found a simple monoclinic cell.
 ALAT       =     6.2901201248
 B/A-ratio  =     0.9974197462
 C/A-ratio  =     1.4105278383
 COS(beta)  =    -0.7044835581
  
  Lattice vectors:
  
 A1 = (  -6.2901201248,   0.0000000000,   0.0000000000)
 A2 = (  -0.0000776940,  -6.2738900180,   0.0000000000)
 A3 = (   6.2504525538,  -0.0001537931,   6.2969150416)


Analysis of symmetry for initial positions (statically):
=====================================================================
 Subroutine PRICEL returns:
 Original cell was already a primitive cell.
 

 Routine SETGRP: Setting up the symmetry group for a 
 simple monoclinic supercell.


 Subroutine GETGRP returns: Found  1 space group operations
 (whereof  1 operations were pure point group operations)
 out of a pool of  4 trial point group operations.


The static configuration has the point symmetry C_1 .


Analysis of symmetry for dynamics (positions and initial velocities):
=====================================================================
 Subroutine PRICEL returns:
 Original cell was already a primitive cell.
 

 Routine SETGRP: Setting up the symmetry group for a 
 simple monoclinic supercell.


 Subroutine GETGRP returns: Found  1 space group operations
 (whereof  1 operations were pure point group operations)
 out of a pool of  4 trial point group operations.


The dynamic configuration has the point symmetry C_1 .


Analysis of magnetic symmetry:
=====================================================================
 Subroutine PRICEL returns:
 Original cell was already a primitive cell.
 

 Subroutine MAGSYM returns: Found  1 space group operations
 (whereof  1 operations were pure point group operations)
 out of a pool of  1 trial space group operations
 (whereof  1 operations were pure point group operations)
 and found also     1 'primitive' translations


The magnetic configuration has the point symmetry C_1 .
 
 
 KPOINTS: k-points along high symmetry lines      
  interpolating k-points between supplied coordinates
  k-points in reciprocal lattice
Space group operators:
 irot       det(A)        alpha          n_x          n_y          n_z        tau_x        tau_y        tau_z
    1     1.000000     0.000000     1.000000     0.000000     0.000000     0.000000     0.000000     0.000000


--------------------------------------------------------------------------------------------------------




 Dimension of arrays:
   k-points           NKPTS =    440   k-points in BZ     NKDIM =    440   number of bands    NBANDS=     48
   number of dos      NEDOS =    301   number of ions     NIONS =     12
   non local maximal  LDIM  =      6   non local SUM 2l+1 LMDIM =     18
   total plane-waves  NPLWV =  32768
   max r-space proj   IRMAX =   1785   max aug-charges    IRDMAX=   7826
   dimension x,y,z NGX =    32 NGY =   32 NGZ =   32
   dimension x,y,z NGXF=    64 NGYF=   64 NGZF=   64
   support grid    NGXF=    64 NGYF=   64 NGZF=   64
   ions per type =               1   1   6   1   3
 NGX,Y,Z   is equivalent  to a cutoff of   8.46,  8.48,  8.45 a.u.
 NGXF,Y,Z  is equivalent  to a cutoff of  16.92, 16.96, 16.90 a.u.


 I would recommend the setting:
   dimension x,y,z NGX =    31 NGY =   31 NGZ =   31
 SYSTEM =  unknown system                          
 POSCAR =  MA-Pb-I (Pseudocubic)                   

 Startparameter for this run:
   NWRITE =      2    write-flag & timer
   PREC   = normal    normal or accurate (medium, high low for compatibility)
   ISTART =      0    job   : 0-new  1-cont  2-samecut
   ICHARG =     11    charge: 1-file 2-atom 10-const
   ISPIN  =      2    spin polarized calculation?
   LNONCOLLINEAR =      F non collinear calculations
   LSORBIT =      F    spin-orbit coupling
   INIWAV =      1    electr: 0-lowe 1-rand  2-diag
   LASPH  =      T    aspherical Exc in radial PAW
   METAGGA=      F    non-selfconsistent MetaGGA calc.

 Electronic Relaxation 1
   ENCUT  =  400.0 eV  29.40 Ry    5.42 a.u.  10.26 10.23 10.27*2*pi/ulx,y,z
   ENINI  =  400.0     initial cutoff
   ENAUG  =  644.9 eV  augmentation charge cutoff
   NELM   =     60;   NELMIN=  2; NELMDL= -5     # of ELM steps 
   EDIFF  = 0.1E-03   stopping-criterion for ELM
   LREAL  =      T    real-space projection
   NLSPLINE    = F    spline interpolate recip. space projectors
   LCOMPAT=      F    compatible to vasp.4.4
   GGA_COMPAT  = T    GGA compatible to vasp.4.4-vasp.4.6
   LMAXPAW     = -100 max onsite density
   LMAXMIX     =    4 max onsite mixed and CHGCAR
   VOSKOWN=      0    Vosko Wilk Nusair interpolation
   ROPT   =   -0.00050  -0.00050  -0.00050  -0.00050
   ROPT   =   -0.00050
 Ionic relaxation
   EDIFFG = -.2E-01   stopping-criterion for IOM
   NSW    =      0    number of steps for IOM
   NBLOCK =      1;   KBLOCK =      1    inner block; outer block 
   IBRION =     -1    ionic relax: 0-MD 1-quasi-New 2-CG
   NFREE  =      1    steps in history (QN), initial steepest desc. (CG)
   ISIF   =      2    stress and relaxation
   IWAVPR =     10    prediction:  0-non 1-charg 2-wave 3-comb
   ISYM   =      2    0-nonsym 1-usesym 2-fastsym
   LCORR  =      T    Harris-Foulkes like correction to forces

   POTIM  = 0.5000    time-step for ionic-motion
   TEIN   =    0.0    initial temperature
   TEBEG  =    0.0;   TEEND  =   0.0 temperature during run
   SMASS  =  -3.00    Nose mass-parameter (am)
   estimated Nose-frequenzy (Omega)   =  0.10E-29 period in steps =****** mass=  -0.904E-27a.u.
   SCALEE = 1.0000    scale energy and forces
   NPACO  =    256;   APACO  = 16.0  distance and # of slots for P.C.
   PSTRESS=    0.0 pullay stress

  Mass of Ions in am
   POMASS =  12.01 14.00  1.00207.20126.90
  Ionic Valenz
   ZVAL   =   4.00  5.00  1.00 14.00  7.00
  Atomic Wigner-Seitz radii
   RWIGS  =  -1.00 -1.00 -1.00 -1.00 -1.00
  virtual crystal weights 
   VCA    =   1.00  1.00  1.00  1.00  1.00
   NELECT =      49.0000    total number of electrons
   NUPDOWN=      -1.0000    fix difference up-down

 DOS related values:
   EMIN   =  10.00;   EMAX   =-10.00  energy-range for DOS
   EFERMI =   0.00
   ISMEAR =     0;   SIGMA  =   0.20  broadening in eV -4-tet -1-fermi 0-gaus

 Electronic relaxation 2 (details)
   IALGO  =     38    algorithm
   LDIAG  =      T    sub-space diagonalisation (order eigenvalues)
   LSUBROT=      F    optimize rotation matrix (better conditioning)
   TURBO    =      0    0=normal 1=particle mesh
   IRESTART =      0    0=no restart 2=restart with 2 vectors
   NREBOOT  =      0    no. of reboots
   NMIN     =      0    reboot dimension
   EREF     =   0.00    reference energy to select bands
   IMIX   =      4    mixing-type and parameters
     AMIX     =   0.40;   BMIX     =  1.00
     AMIX_MAG =   1.60;   BMIX_MAG =  1.00
     AMIN     =   0.10
     WC   =   100.;   INIMIX=   1;  MIXPRE=   1;  MAXMIX= -45

 Intra band minimization:
   WEIMIN = 0.0000     energy-eigenvalue tresh-hold
   EBREAK =  0.52E-06  absolut break condition
   DEPER  =   0.30     relativ break condition  

   TIME   =   0.40     timestep for ELM

  volume/ion in A,a.u.               =      20.71       139.75
  Fermi-wavevector in a.u.,A,eV,Ry     =   0.952867  1.800658 12.353486  0.907956
  Thomas-Fermi vector in A             =   2.081469
 
 Write flags
   LWAVE  =      T    write WAVECAR
   LCHARG =      T    write CHGCAR
   LVTOT  =      F    write LOCPOT, total local potential
   LVHAR  =      F    write LOCPOT, Hartree potential only
   LELF   =      F    write electronic localiz. function (ELF)
   LORBIT =     11    0 simple, 1 ext, 2 COOP (PROOUT)


 Dipole corrections
   LMONO  =      F    monopole corrections only (constant potential shift)
   LDIPOL =      F    correct potential (dipole corrections)
   IDIPOL =      0    1-x, 2-y, 3-z, 4-all directions 
   EPSILON=  1.0000000 bulk dielectric constant

 LDA+U is selected, type is set to LDAUTYPE =  2
   angular momentum for each species LDAUL =    -1   -1   -1   -1    1
   U (eV)           for each species LDAUU =   0.0  0.0  0.0  0.0  8.0
   J (eV)           for each species LDAUJ =   0.0  0.0  0.0  0.0  0.0
 Exchange correlation treatment:
   GGA     =    --    GGA type
   LEXCH   =     2    internal setting for exchange type
   VOSKOWN=      0    Vosko Wilk Nusair interpolation
   LHFCALC =     F    Hartree Fock is set to
   LHFONE  =     F    Hartree Fock one center treatment
   AEXX    =    0.0000 exact exchange contribution

 Linear response parameters
   LEPSILON=     F    determine dielectric tensor
   LRPA    =     F    only Hartree local field effects (RPA)
   LNABLA  =     F    use nabla operator in PAW spheres
   LVEL    =     F    velocity operator in full k-point grid
   LINTERFAST=   F  fast interpolation
   KINTER  =     0    interpolate to denser k-point grid
   CSHIFT  =0.1000    complex shift for real part using Kramers Kronig
   OMEGAMAX=  -1.0    maximum frequency
   DEG_THRESHOLD= 0.2000000E-02 threshold for treating states as degnerate
   RTIME   =    0.100 relaxation time in fs

 Orbital magnetization related:
   ORBITALMAG=     F  switch on orbital magnetization
   LCHIMAG   =     F  perturbation theory with respect to B field
   DQ        =  0.001000  dq finite difference perturbation B field



--------------------------------------------------------------------------------------------------------


 Static calculation
 charge density and potential remain constant during run
 spin polarized calculation
 Variant of blocked Davidson
 Davidson routine will perform the subspace rotation
 perform sub-space diagonalisation
    after iterative eigenvector-optimisation
 no mixing
 using additional bands           23
 real space projection scheme for non local part
 use partial core corrections
 calculate Harris-corrections to forces 
   (improved forces if not selfconsistent)
 use of overlap-Matrix (Vanderbilt PP)
 Gauss-broadening in eV      SIGMA  =   0.20


--------------------------------------------------------------------------------------------------------


  energy-cutoff  :      400.00
  volume of cell :      248.50
      direct lattice vectors                 reciprocal lattice vectors
     6.290120125  0.000000000  0.000000000     0.158979476 -0.000001969  0.001001495
     0.000077694  6.273890018  0.000000000     0.000000000  0.159390744  0.000003893
    -0.039667571 -0.000153793  6.296915042     0.000000000  0.000000000  0.158807923

  length of vectors
     6.290120125  6.273890018  6.297039986     0.158982630  0.159390744  0.158807923


 
 k-points in units of 2pi/SCALE and weight: k-points along high symmetry lines      
   0.07948974 -0.00000098  0.07990471       0.002
   0.07948974  0.00204249  0.07990476       0.002
   0.07948974  0.00408596  0.07990481       0.002
   0.07948974  0.00612943  0.07990486       0.002
   0.07948974  0.00817290  0.07990491       0.002
   0.07948974  0.01021637  0.07990496       0.002
   0.07948974  0.01225984  0.07990501       0.002
   0.07948974  0.01430331  0.07990506       0.002
   0.07948974  0.01634678  0.07990511       0.002
   0.07948974  0.01839026  0.07990516       0.002
   0.07948974  0.02043373  0.07990521       0.002
   0.07948974  0.02247720  0.07990526       0.002
   0.07948974  0.02452067  0.07990531       0.002
   0.07948974  0.02656414  0.07990536       0.002
   0.07948974  0.02860761  0.07990541       0.002
   0.07948974  0.03065108  0.07990546       0.002
   0.07948974  0.03269455  0.07990551       0.002
   0.07948974  0.03473802  0.07990556       0.002
   0.07948974  0.03678150  0.07990561       0.002
   0.07948974  0.03882497  0.07990566       0.002
   0.07948974  0.04086844  0.07990571       0.002
   0.07948974  0.04291191  0.07990576       0.002
   0.07948974  0.04495538  0.07990581       0.002
   0.07948974  0.04699885  0.07990586       0.002
   0.07948974  0.04904232  0.07990591       0.002
   0.07948974  0.05108579  0.07990596       0.002
   0.07948974  0.05312926  0.07990601       0.002
   0.07948974  0.05517273  0.07990606       0.002
   0.07948974  0.05721621  0.07990611       0.002
   0.07948974  0.05925968  0.07990616       0.002
   0.07948974  0.06130315  0.07990621       0.002
   0.07948974  0.06334662  0.07990626       0.002
   0.07948974  0.06539009  0.07990631       0.002
   0.07948974  0.06743356  0.07990636       0.002
   0.07948974  0.06947703  0.07990641       0.002
   0.07948974  0.07152050  0.07990646       0.002
   0.07948974  0.07356397  0.07990651       0.002
   0.07948974  0.07560745  0.07990656       0.002
   0.07948974  0.07765092  0.07990661       0.002
   0.07948974  0.07969439  0.07990666       0.002
   0.07948974  0.07969439  0.07990666       0.002
   0.07745154  0.07765094  0.07989377       0.002
   0.07541334  0.07560750  0.07988088       0.002
   0.07337514  0.07356405  0.07986799       0.002
   0.07133694  0.07152060  0.07985510       0.002
   0.06929875  0.06947716  0.07984221       0.002
   0.06726055  0.06743371  0.07982932       0.002
   0.06522235  0.06539027  0.07981643       0.002
   0.06318415  0.06334682  0.07980354       0.002
   0.06114595  0.06130338  0.07979065       0.002
   0.05910775  0.05925993  0.07977776       0.002
   0.05706956  0.05721648  0.07976487       0.002
   0.05503136  0.05517304  0.07975198       0.002
   0.05299316  0.05312959  0.07973909       0.002
   0.05095496  0.05108615  0.07972620       0.002
   0.04891676  0.04904270  0.07971331       0.002
   0.04687856  0.04699925  0.07970042       0.002
   0.04484036  0.04495581  0.07968753       0.002
   0.04280217  0.04291236  0.07967464       0.002
   0.04076397  0.04086892  0.07966175       0.002
   0.03872577  0.03882547  0.07964886       0.002
   0.03668757  0.03678203  0.07963597       0.002
   0.03464937  0.03473858  0.07962308       0.002
   0.03261117  0.03269513  0.07961020       0.002
   0.03057298  0.03065169  0.07959731       0.002
   0.02853478  0.02860824  0.07958442       0.002
   0.02649658  0.02656480  0.07957153       0.002
   0.02445838  0.02452135  0.07955864       0.002
   0.02242018  0.02247790  0.07954575       0.002
   0.02038198  0.02043446  0.07953286       0.002
   0.01834379  0.01839101  0.07951997       0.002
   0.01630559  0.01634757  0.07950708       0.002
   0.01426739  0.01430412  0.07949419       0.002
   0.01222919  0.01226068  0.07948130       0.002
   0.01019099  0.01021723  0.07946841       0.002
   0.00815279  0.00817378  0.07945552       0.002
   0.00611460  0.00613034  0.07944263       0.002
   0.00407640  0.00408689  0.07942974       0.002
   0.00203820  0.00204345  0.07941685       0.002
   0.00000000  0.00000000  0.07940396       0.002
   0.00000000  0.00000000  0.07940396       0.002
   0.00000000  0.00204347  0.07940401       0.002
   0.00000000  0.00408694  0.07940406       0.002
   0.00000000  0.00613041  0.07940411       0.002
   0.00000000  0.00817388  0.07940416       0.002
   0.00000000  0.01021736  0.07940421       0.002
   0.00000000  0.01226083  0.07940426       0.002
   0.00000000  0.01430430  0.07940431       0.002
   0.00000000  0.01634777  0.07940436       0.002
   0.00000000  0.01839124  0.07940441       0.002
   0.00000000  0.02043471  0.07940446       0.002
   0.00000000  0.02247818  0.07940451       0.002
   0.00000000  0.02452165  0.07940456       0.002
   0.00000000  0.02656512  0.07940461       0.002
   0.00000000  0.02860860  0.07940466       0.002
   0.00000000  0.03065207  0.07940471       0.002
   0.00000000  0.03269554  0.07940476       0.002
   0.00000000  0.03473901  0.07940481       0.002
   0.00000000  0.03678248  0.07940486       0.002
   0.00000000  0.03882595  0.07940491       0.002
   0.00000000  0.04086942  0.07940496       0.002
   0.00000000  0.04291289  0.07940501       0.002
   0.00000000  0.04495636  0.07940506       0.002
   0.00000000  0.04699983  0.07940511       0.002
   0.00000000  0.04904331  0.07940516       0.002
   0.00000000  0.05108678  0.07940521       0.002
   0.00000000  0.05313025  0.07940526       0.002
   0.00000000  0.05517372  0.07940531       0.002
   0.00000000  0.05721719  0.07940536       0.002
   0.00000000  0.05926066  0.07940541       0.002
   0.00000000  0.06130413  0.07940546       0.002
   0.00000000  0.06334760  0.07940551       0.002
   0.00000000  0.06539107  0.07940556       0.002
   0.00000000  0.06743455  0.07940561       0.002
   0.00000000  0.06947802  0.07940566       0.002
   0.00000000  0.07152149  0.07940571       0.002
   0.00000000  0.07356496  0.07940576       0.002
   0.00000000  0.07560843  0.07940581       0.002
   0.00000000  0.07765190  0.07940586       0.002
   0.00000000  0.07969537  0.07940591       0.002
   0.00000000  0.07969537  0.07940591       0.002
   0.00203820  0.07969535  0.07941875       0.002
   0.00407640  0.07969532  0.07943159       0.002
   0.00611460  0.07969530  0.07944443       0.002
   0.00815279  0.07969527  0.07945727       0.002
   0.01019099  0.07969525  0.07947011       0.002
   0.01222919  0.07969522  0.07948295       0.002
   0.01426739  0.07969520  0.07949579       0.002
   0.01630559  0.07969517  0.07950863       0.002
   0.01834379  0.07969515  0.07952147       0.002
   0.02038198  0.07969512  0.07953430       0.002
   0.02242018  0.07969509  0.07954714       0.002
   0.02445838  0.07969507  0.07955998       0.002
   0.02649658  0.07969504  0.07957282       0.002
   0.02853478  0.07969502  0.07958566       0.002
   0.03057298  0.07969499  0.07959850       0.002
   0.03261117  0.07969497  0.07961134       0.002
   0.03464937  0.07969494  0.07962418       0.002
   0.03668757  0.07969492  0.07963702       0.002
   0.03872577  0.07969489  0.07964986       0.002
   0.04076397  0.07969487  0.07966270       0.002
   0.04280217  0.07969484  0.07967554       0.002
   0.04484036  0.07969482  0.07968838       0.002
   0.04687856  0.07969479  0.07970122       0.002
   0.04891676  0.07969477  0.07971406       0.002
   0.05095496  0.07969474  0.07972690       0.002
   0.05299316  0.07969472  0.07973974       0.002
   0.05503136  0.07969469  0.07975258       0.002
   0.05706956  0.07969467  0.07976542       0.002
   0.05910775  0.07969464  0.07977826       0.002
   0.06114595  0.07969461  0.07979110       0.002
   0.06318415  0.07969459  0.07980394       0.002
   0.06522235  0.07969456  0.07981678       0.002
   0.06726055  0.07969454  0.07982962       0.002
   0.06929875  0.07969451  0.07984246       0.002
   0.07133694  0.07969449  0.07985530       0.002
   0.07337514  0.07969446  0.07986814       0.002
   0.07541334  0.07969444  0.07988098       0.002
   0.07745154  0.07969441  0.07989382       0.002
   0.07948974  0.07969439  0.07990666       0.002
   0.07948974  0.07969439  0.07990666       0.002
   0.07745154  0.07969441  0.07785782       0.002
   0.07541334  0.07969444  0.07580898       0.002
   0.07337514  0.07969446  0.07376014       0.002
   0.07133694  0.07969449  0.07171130       0.002
   0.06929875  0.07969451  0.06966246       0.002
   0.06726055  0.07969454  0.06761362       0.002
   0.06522235  0.07969456  0.06556478       0.002
   0.06318415  0.07969459  0.06351595       0.002
   0.06114595  0.07969461  0.06146711       0.002
   0.05910775  0.07969464  0.05941827       0.002
   0.05706956  0.07969467  0.05736943       0.002
   0.05503136  0.07969469  0.05532059       0.002
   0.05299316  0.07969472  0.05327175       0.002
   0.05095496  0.07969474  0.05122291       0.002
   0.04891676  0.07969477  0.04917408       0.002
   0.04687856  0.07969479  0.04712524       0.002
   0.04484036  0.07969482  0.04507640       0.002
   0.04280217  0.07969484  0.04302756       0.002
   0.04076397  0.07969487  0.04097872       0.002
   0.03872577  0.07969489  0.03892988       0.002
   0.03668757  0.07969492  0.03688104       0.002
   0.03464937  0.07969494  0.03483220       0.002
   0.03261117  0.07969497  0.03278337       0.002
   0.03057298  0.07969499  0.03073453       0.002
   0.02853478  0.07969502  0.02868569       0.002
   0.02649658  0.07969504  0.02663685       0.002
   0.02445838  0.07969507  0.02458801       0.002
   0.02242018  0.07969509  0.02253917       0.002
   0.02038198  0.07969512  0.02049033       0.002
   0.01834379  0.07969515  0.01844149       0.002
   0.01630559  0.07969517  0.01639266       0.002
   0.01426739  0.07969520  0.01434382       0.002
   0.01222919  0.07969522  0.01229498       0.002
   0.01019099  0.07969525  0.01024614       0.002
   0.00815279  0.07969527  0.00819730       0.002
   0.00611460  0.07969530  0.00614846       0.002
   0.00407640  0.07969532  0.00409962       0.002
   0.00203820  0.07969535  0.00205079       0.002
   0.00000000  0.07969537  0.00000195       0.002
   0.00000000  0.07969537  0.00000195       0.002
   0.00203820  0.07969535  0.00001479       0.002
   0.00407640  0.07969532  0.00002763       0.002
   0.00611460  0.07969530  0.00004047       0.002
   0.00815279  0.07969527  0.00005331       0.002
   0.01019099  0.07969525  0.00006614       0.002
   0.01222919  0.07969522  0.00007898       0.002
   0.01426739  0.07969520  0.00009182       0.002
   0.01630559  0.07969517  0.00010466       0.002
   0.01834379  0.07969515  0.00011750       0.002
   0.02038198  0.07969512  0.00013034       0.002
   0.02242018  0.07969509  0.00014318       0.002
   0.02445838  0.07969507  0.00015602       0.002
   0.02649658  0.07969504  0.00016886       0.002
   0.02853478  0.07969502  0.00018170       0.002
   0.03057298  0.07969499  0.00019454       0.002
   0.03261117  0.07969497  0.00020738       0.002
   0.03464937  0.07969494  0.00022022       0.002
   0.03668757  0.07969492  0.00023306       0.002
   0.03872577  0.07969489  0.00024590       0.002
   0.04076397  0.07969487  0.00025874       0.002
   0.04280217  0.07969484  0.00027158       0.002
   0.04484036  0.07969482  0.00028442       0.002
   0.04687856  0.07969479  0.00029726       0.002
   0.04891676  0.07969477  0.00031010       0.002
   0.05095496  0.07969474  0.00032294       0.002
   0.05299316  0.07969472  0.00033578       0.002
   0.05503136  0.07969469  0.00034862       0.002
   0.05706956  0.07969467  0.00036146       0.002
   0.05910775  0.07969464  0.00037430       0.002
   0.06114595  0.07969461  0.00038714       0.002
   0.06318415  0.07969459  0.00039998       0.002
   0.06522235  0.07969456  0.00041282       0.002
   0.06726055  0.07969454  0.00042566       0.002
   0.06929875  0.07969451  0.00043850       0.002
   0.07133694  0.07969449  0.00045134       0.002
   0.07337514  0.07969446  0.00046417       0.002
   0.07541334  0.07969444  0.00047701       0.002
   0.07745154  0.07969441  0.00048985       0.002
   0.07948974  0.07969439  0.00050269       0.002
   0.07948974  0.07969439  0.00050269       0.002
   0.07948974  0.07969439  0.00253869       0.002
   0.07948974  0.07969439  0.00457469       0.002
   0.07948974  0.07969439  0.00661069       0.002
   0.07948974  0.07969439  0.00864669       0.002
   0.07948974  0.07969439  0.01068269       0.002
   0.07948974  0.07969439  0.01271869       0.002
   0.07948974  0.07969439  0.01475469       0.002
   0.07948974  0.07969439  0.01679069       0.002
   0.07948974  0.07969439  0.01882669       0.002
   0.07948974  0.07969439  0.02086268       0.002
   0.07948974  0.07969439  0.02289868       0.002
   0.07948974  0.07969439  0.02493468       0.002
   0.07948974  0.07969439  0.02697068       0.002
   0.07948974  0.07969439  0.02900668       0.002
   0.07948974  0.07969439  0.03104268       0.002
   0.07948974  0.07969439  0.03307868       0.002
   0.07948974  0.07969439  0.03511468       0.002
   0.07948974  0.07969439  0.03715068       0.002
   0.07948974  0.07969439  0.03918668       0.002
   0.07948974  0.07969439  0.04122267       0.002
   0.07948974  0.07969439  0.04325867       0.002
   0.07948974  0.07969439  0.04529467       0.002
   0.07948974  0.07969439  0.04733067       0.002
   0.07948974  0.07969439  0.04936667       0.002
   0.07948974  0.07969439  0.05140267       0.002
   0.07948974  0.07969439  0.05343867       0.002
   0.07948974  0.07969439  0.05547467       0.002
   0.07948974  0.07969439  0.05751067       0.002
   0.07948974  0.07969439  0.05954667       0.002
   0.07948974  0.07969439  0.06158266       0.002
   0.07948974  0.07969439  0.06361866       0.002
   0.07948974  0.07969439  0.06565466       0.002
   0.07948974  0.07969439  0.06769066       0.002
   0.07948974  0.07969439  0.06972666       0.002
   0.07948974  0.07969439  0.07176266       0.002
   0.07948974  0.07969439  0.07379866       0.002
   0.07948974  0.07969439  0.07583466       0.002
   0.07948974  0.07969439  0.07787066       0.002
   0.07948974  0.07969439  0.07990666       0.002
   0.07948974  0.07969439  0.07990666       0.002
   0.07948974  0.07765092  0.07787061       0.002
   0.07948974  0.07560745  0.07583456       0.002
   0.07948974  0.07356397  0.07379851       0.002
   0.07948974  0.07152050  0.07176246       0.002
   0.07948974  0.06947703  0.06972641       0.002
   0.07948974  0.06743356  0.06769036       0.002
   0.07948974  0.06539009  0.06565431       0.002
   0.07948974  0.06334662  0.06361826       0.002
   0.07948974  0.06130315  0.06158222       0.002
   0.07948974  0.05925968  0.05954617       0.002
   0.07948974  0.05721621  0.05751012       0.002
   0.07948974  0.05517273  0.05547407       0.002
   0.07948974  0.05312926  0.05343802       0.002
   0.07948974  0.05108579  0.05140197       0.002
   0.07948974  0.04904232  0.04936592       0.002
   0.07948974  0.04699885  0.04732987       0.002
   0.07948974  0.04495538  0.04529382       0.002
   0.07948974  0.04291191  0.04325777       0.002
   0.07948974  0.04086844  0.04122173       0.002
   0.07948974  0.03882497  0.03918568       0.002
   0.07948974  0.03678150  0.03714963       0.002
   0.07948974  0.03473802  0.03511358       0.002
   0.07948974  0.03269455  0.03307753       0.002
   0.07948974  0.03065108  0.03104148       0.002
   0.07948974  0.02860761  0.02900543       0.002
   0.07948974  0.02656414  0.02696938       0.002
   0.07948974  0.02452067  0.02493333       0.002
   0.07948974  0.02247720  0.02289729       0.002
   0.07948974  0.02043373  0.02086124       0.002
   0.07948974  0.01839026  0.01882519       0.002
   0.07948974  0.01634678  0.01678914       0.002
   0.07948974  0.01430331  0.01475309       0.002
   0.07948974  0.01225984  0.01271704       0.002
   0.07948974  0.01021637  0.01068099       0.002
   0.07948974  0.00817290  0.00864494       0.002
   0.07948974  0.00612943  0.00660889       0.002
   0.07948974  0.00408596  0.00457285       0.002
   0.07948974  0.00204249  0.00253680       0.002
   0.07948974 -0.00000098  0.00050075       0.002
   0.07948974 -0.00000098  0.00050075       0.002
   0.07745154 -0.00000096  0.00048791       0.002
   0.07541334 -0.00000093  0.00047507       0.002
   0.07337514 -0.00000091  0.00046223       0.002
   0.07133694 -0.00000088  0.00044939       0.002
   0.06929875 -0.00000086  0.00043655       0.002
   0.06726055 -0.00000083  0.00042371       0.002
   0.06522235 -0.00000081  0.00041087       0.002
   0.06318415 -0.00000078  0.00039803       0.002
   0.06114595 -0.00000076  0.00038519       0.002
   0.05910775 -0.00000073  0.00037235       0.002
   0.05706956 -0.00000071  0.00035951       0.002
   0.05503136 -0.00000068  0.00034667       0.002
   0.05299316 -0.00000066  0.00033383       0.002
   0.05095496 -0.00000063  0.00032099       0.002
   0.04891676 -0.00000061  0.00030815       0.002
   0.04687856 -0.00000058  0.00029531       0.002
   0.04484036 -0.00000056  0.00028247       0.002
   0.04280217 -0.00000053  0.00026963       0.002
   0.04076397 -0.00000050  0.00025679       0.002
   0.03872577 -0.00000048  0.00024395       0.002
   0.03668757 -0.00000045  0.00023111       0.002
   0.03464937 -0.00000043  0.00021827       0.002
   0.03261117 -0.00000040  0.00020543       0.002
   0.03057298 -0.00000038  0.00019260       0.002
   0.02853478 -0.00000035  0.00017976       0.002
   0.02649658 -0.00000033  0.00016692       0.002
   0.02445838 -0.00000030  0.00015408       0.002
   0.02242018 -0.00000028  0.00014124       0.002
   0.02038198 -0.00000025  0.00012840       0.002
   0.01834379 -0.00000023  0.00011556       0.002
   0.01630559 -0.00000020  0.00010272       0.002
   0.01426739 -0.00000018  0.00008988       0.002
   0.01222919 -0.00000015  0.00007704       0.002
   0.01019099 -0.00000013  0.00006420       0.002
   0.00815279 -0.00000010  0.00005136       0.002
   0.00611460 -0.00000008  0.00003852       0.002
   0.00407640 -0.00000005  0.00002568       0.002
   0.00203820 -0.00000003  0.00001284       0.002
   0.00000000  0.00000000  0.00000000       0.002
   0.00000000  0.00000000  0.00000000       0.002
   0.00203820  0.00204345  0.00204889       0.002
   0.00407640  0.00408689  0.00409778       0.002
   0.00611460  0.00613034  0.00614667       0.002
   0.00815279  0.00817378  0.00819555       0.002
   0.01019099  0.01021723  0.01024444       0.002
   0.01222919  0.01226068  0.01229333       0.002
   0.01426739  0.01430412  0.01434222       0.002
   0.01630559  0.01634757  0.01639111       0.002
   0.01834379  0.01839101  0.01844000       0.002
   0.02038198  0.02043446  0.02048889       0.002
   0.02242018  0.02247790  0.02253777       0.002
   0.02445838  0.02452135  0.02458666       0.002
   0.02649658  0.02656480  0.02663555       0.002
   0.02853478  0.02860824  0.02868444       0.002
   0.03057298  0.03065169  0.03073333       0.002
   0.03261117  0.03269513  0.03278222       0.002
   0.03464937  0.03473858  0.03483111       0.002
   0.03668757  0.03678203  0.03687999       0.002
   0.03872577  0.03882547  0.03892888       0.002
   0.04076397  0.04086892  0.04097777       0.002
   0.04280217  0.04291236  0.04302666       0.002
   0.04484036  0.04495581  0.04507555       0.002
   0.04687856  0.04699925  0.04712444       0.002
   0.04891676  0.04904270  0.04917333       0.002
   0.05095496  0.05108615  0.05122222       0.002
   0.05299316  0.05312959  0.05327110       0.002
   0.05503136  0.05517304  0.05531999       0.002
   0.05706956  0.05721648  0.05736888       0.002
   0.05910775  0.05925993  0.05941777       0.002
   0.06114595  0.06130338  0.06146666       0.002
   0.06318415  0.06334682  0.06351555       0.002
   0.06522235  0.06539027  0.06556444       0.002
   0.06726055  0.06743371  0.06761332       0.002
   0.06929875  0.06947716  0.06966221       0.002
   0.07133694  0.07152060  0.07171110       0.002
   0.07337514  0.07356405  0.07375999       0.002
   0.07541334  0.07560750  0.07580888       0.002
   0.07745154  0.07765094  0.07785777       0.002
   0.07948974  0.07969439  0.07990666       0.002
   0.07948974  0.07969439  0.07990666       0.002
   0.07948974  0.07765092  0.07990661       0.002
   0.07948974  0.07560745  0.07990656       0.002
   0.07948974  0.07356397  0.07990651       0.002
   0.07948974  0.07152050  0.07990646       0.002
   0.07948974  0.06947703  0.07990641       0.002
   0.07948974  0.06743356  0.07990636       0.002
   0.07948974  0.06539009  0.07990631       0.002
   0.07948974  0.06334662  0.07990626       0.002
   0.07948974  0.06130315  0.07990621       0.002
   0.07948974  0.05925968  0.07990616       0.002
   0.07948974  0.05721621  0.07990611       0.002
   0.07948974  0.05517273  0.07990606       0.002
   0.07948974  0.05312926  0.07990601       0.002
   0.07948974  0.05108579  0.07990596       0.002
   0.07948974  0.04904232  0.07990591       0.002
   0.07948974  0.04699885  0.07990586       0.002
   0.07948974  0.04495538  0.07990581       0.002
   0.07948974  0.04291191  0.07990576       0.002
   0.07948974  0.04086844  0.07990571       0.002
   0.07948974  0.03882497  0.07990566       0.002
   0.07948974  0.03678150  0.07990561       0.002
   0.07948974  0.03473802  0.07990556       0.002
   0.07948974  0.03269455  0.07990551       0.002
   0.07948974  0.03065108  0.07990546       0.002
   0.07948974  0.02860761  0.07990541       0.002
   0.07948974  0.02656414  0.07990536       0.002
   0.07948974  0.02452067  0.07990531       0.002
   0.07948974  0.02247720  0.07990526       0.002
   0.07948974  0.02043373  0.07990521       0.002
   0.07948974  0.01839026  0.07990516       0.002
   0.07948974  0.01634678  0.07990511       0.002
   0.07948974  0.01430331  0.07990506       0.002
   0.07948974  0.01225984  0.07990501       0.002
   0.07948974  0.01021637  0.07990496       0.002
   0.07948974  0.00817290  0.07990491       0.002
   0.07948974  0.00612943  0.07990486       0.002
   0.07948974  0.00408596  0.07990481       0.002
   0.07948974  0.00204249  0.07990476       0.002
   0.07948974 -0.00000098  0.07990471       0.002
 
 k-points in reciprocal lattice and weights: k-points along high symmetry lines      
   0.50000000  0.00000000  0.50000000       0.002
   0.50000000  0.01282051  0.50000000       0.002
   0.50000000  0.02564103  0.50000000       0.002
   0.50000000  0.03846154  0.50000000       0.002
   0.50000000  0.05128205  0.50000000       0.002
   0.50000000  0.06410256  0.50000000       0.002
   0.50000000  0.07692308  0.50000000       0.002
   0.50000000  0.08974359  0.50000000       0.002
   0.50000000  0.10256410  0.50000000       0.002
   0.50000000  0.11538462  0.50000000       0.002
   0.50000000  0.12820513  0.50000000       0.002
   0.50000000  0.14102564  0.50000000       0.002
   0.50000000  0.15384615  0.50000000       0.002
   0.50000000  0.16666667  0.50000000       0.002
   0.50000000  0.17948718  0.50000000       0.002
   0.50000000  0.19230769  0.50000000       0.002
   0.50000000  0.20512821  0.50000000       0.002
   0.50000000  0.21794872  0.50000000       0.002
   0.50000000  0.23076923  0.50000000       0.002
   0.50000000  0.24358974  0.50000000       0.002
   0.50000000  0.25641026  0.50000000       0.002
   0.50000000  0.26923077  0.50000000       0.002
   0.50000000  0.28205128  0.50000000       0.002
   0.50000000  0.29487179  0.50000000       0.002
   0.50000000  0.30769231  0.50000000       0.002
   0.50000000  0.32051282  0.50000000       0.002
   0.50000000  0.33333333  0.50000000       0.002
   0.50000000  0.34615385  0.50000000       0.002
   0.50000000  0.35897436  0.50000000       0.002
   0.50000000  0.37179487  0.50000000       0.002
   0.50000000  0.38461538  0.50000000       0.002
   0.50000000  0.39743590  0.50000000       0.002
   0.50000000  0.41025641  0.50000000       0.002
   0.50000000  0.42307692  0.50000000       0.002
   0.50000000  0.43589744  0.50000000       0.002
   0.50000000  0.44871795  0.50000000       0.002
   0.50000000  0.46153846  0.50000000       0.002
   0.50000000  0.47435897  0.50000000       0.002
   0.50000000  0.48717949  0.50000000       0.002
   0.50000000  0.50000000  0.50000000       0.002
   0.50000000  0.50000000  0.50000000       0.002
   0.48717949  0.48717949  0.50000000       0.002
   0.47435897  0.47435897  0.50000000       0.002
   0.46153846  0.46153846  0.50000000       0.002
   0.44871795  0.44871795  0.50000000       0.002
   0.43589744  0.43589744  0.50000000       0.002
   0.42307692  0.42307692  0.50000000       0.002
   0.41025641  0.41025641  0.50000000       0.002
   0.39743590  0.39743590  0.50000000       0.002
   0.38461538  0.38461538  0.50000000       0.002
   0.37179487  0.37179487  0.50000000       0.002
   0.35897436  0.35897436  0.50000000       0.002
   0.34615385  0.34615385  0.50000000       0.002
   0.33333333  0.33333333  0.50000000       0.002
   0.32051282  0.32051282  0.50000000       0.002
   0.30769231  0.30769231  0.50000000       0.002
   0.29487179  0.29487179  0.50000000       0.002
   0.28205128  0.28205128  0.50000000       0.002
   0.26923077  0.26923077  0.50000000       0.002
   0.25641026  0.25641026  0.50000000       0.002
   0.24358974  0.24358974  0.50000000       0.002
   0.23076923  0.23076923  0.50000000       0.002
   0.21794872  0.21794872  0.50000000       0.002
   0.20512821  0.20512821  0.50000000       0.002
   0.19230769  0.19230769  0.50000000       0.002
   0.17948718  0.17948718  0.50000000       0.002
   0.16666667  0.16666667  0.50000000       0.002
   0.15384615  0.15384615  0.50000000       0.002
   0.14102564  0.14102564  0.50000000       0.002
   0.12820513  0.12820513  0.50000000       0.002
   0.11538462  0.11538462  0.50000000       0.002
   0.10256410  0.10256410  0.50000000       0.002
   0.08974359  0.08974359  0.50000000       0.002
   0.07692308  0.07692308  0.50000000       0.002
   0.06410256  0.06410256  0.50000000       0.002
   0.05128205  0.05128205  0.50000000       0.002
   0.03846154  0.03846154  0.50000000       0.002
   0.02564103  0.02564103  0.50000000       0.002
   0.01282051  0.01282051  0.50000000       0.002
   0.00000000  0.00000000  0.50000000       0.002
   0.00000000  0.00000000  0.50000000       0.002
   0.00000000  0.01282051  0.50000000       0.002
   0.00000000  0.02564103  0.50000000       0.002
   0.00000000  0.03846154  0.50000000       0.002
   0.00000000  0.05128205  0.50000000       0.002
   0.00000000  0.06410256  0.50000000       0.002
   0.00000000  0.07692308  0.50000000       0.002
   0.00000000  0.08974359  0.50000000       0.002
   0.00000000  0.10256410  0.50000000       0.002
   0.00000000  0.11538462  0.50000000       0.002
   0.00000000  0.12820513  0.50000000       0.002
   0.00000000  0.14102564  0.50000000       0.002
   0.00000000  0.15384615  0.50000000       0.002
   0.00000000  0.16666667  0.50000000       0.002
   0.00000000  0.17948718  0.50000000       0.002
   0.00000000  0.19230769  0.50000000       0.002
   0.00000000  0.20512821  0.50000000       0.002
   0.00000000  0.21794872  0.50000000       0.002
   0.00000000  0.23076923  0.50000000       0.002
   0.00000000  0.24358974  0.50000000       0.002
   0.00000000  0.25641026  0.50000000       0.002
   0.00000000  0.26923077  0.50000000       0.002
   0.00000000  0.28205128  0.50000000       0.002
   0.00000000  0.29487179  0.50000000       0.002
   0.00000000  0.30769231  0.50000000       0.002
   0.00000000  0.32051282  0.50000000       0.002
   0.00000000  0.33333333  0.50000000       0.002
   0.00000000  0.34615385  0.50000000       0.002
   0.00000000  0.35897436  0.50000000       0.002
   0.00000000  0.37179487  0.50000000       0.002
   0.00000000  0.38461538  0.50000000       0.002
   0.00000000  0.39743590  0.50000000       0.002
   0.00000000  0.41025641  0.50000000       0.002
   0.00000000  0.42307692  0.50000000       0.002
   0.00000000  0.43589744  0.50000000       0.002
   0.00000000  0.44871795  0.50000000       0.002
   0.00000000  0.46153846  0.50000000       0.002
   0.00000000  0.47435897  0.50000000       0.002
   0.00000000  0.48717949  0.50000000       0.002
   0.00000000  0.50000000  0.50000000       0.002
   0.00000000  0.50000000  0.50000000       0.002
   0.01282051  0.50000000  0.50000000       0.002
   0.02564103  0.50000000  0.50000000       0.002
   0.03846154  0.50000000  0.50000000       0.002
   0.05128205  0.50000000  0.50000000       0.002
   0.06410256  0.50000000  0.50000000       0.002
   0.07692308  0.50000000  0.50000000       0.002
   0.08974359  0.50000000  0.50000000       0.002
   0.10256410  0.50000000  0.50000000       0.002
   0.11538462  0.50000000  0.50000000       0.002
   0.12820513  0.50000000  0.50000000       0.002
   0.14102564  0.50000000  0.50000000       0.002
   0.15384615  0.50000000  0.50000000       0.002
   0.16666667  0.50000000  0.50000000       0.002
   0.17948718  0.50000000  0.50000000       0.002
   0.19230769  0.50000000  0.50000000       0.002
   0.20512821  0.50000000  0.50000000       0.002
   0.21794872  0.50000000  0.50000000       0.002
   0.23076923  0.50000000  0.50000000       0.002
   0.24358974  0.50000000  0.50000000       0.002
   0.25641026  0.50000000  0.50000000       0.002
   0.26923077  0.50000000  0.50000000       0.002
   0.28205128  0.50000000  0.50000000       0.002
   0.29487179  0.50000000  0.50000000       0.002
   0.30769231  0.50000000  0.50000000       0.002
   0.32051282  0.50000000  0.50000000       0.002
   0.33333333  0.50000000  0.50000000       0.002
   0.34615385  0.50000000  0.50000000       0.002
   0.35897436  0.50000000  0.50000000       0.002
   0.37179487  0.50000000  0.50000000       0.002
   0.38461538  0.50000000  0.50000000       0.002
   0.39743590  0.50000000  0.50000000       0.002
   0.41025641  0.50000000  0.50000000       0.002
   0.42307692  0.50000000  0.50000000       0.002
   0.43589744  0.50000000  0.50000000       0.002
   0.44871795  0.50000000  0.50000000       0.002
   0.46153846  0.50000000  0.50000000       0.002
   0.47435897  0.50000000  0.50000000       0.002
   0.48717949  0.50000000  0.50000000       0.002
   0.50000000  0.50000000  0.50000000       0.002
   0.50000000  0.50000000  0.50000000       0.002
   0.48717949  0.50000000  0.48717949       0.002
   0.47435897  0.50000000  0.47435897       0.002
   0.46153846  0.50000000  0.46153846       0.002
   0.44871795  0.50000000  0.44871795       0.002
   0.43589744  0.50000000  0.43589744       0.002
   0.42307692  0.50000000  0.42307692       0.002
   0.41025641  0.50000000  0.41025641       0.002
   0.39743590  0.50000000  0.39743590       0.002
   0.38461538  0.50000000  0.38461538       0.002
   0.37179487  0.50000000  0.37179487       0.002
   0.35897436  0.50000000  0.35897436       0.002
   0.34615385  0.50000000  0.34615385       0.002
   0.33333333  0.50000000  0.33333333       0.002
   0.32051282  0.50000000  0.32051282       0.002
   0.30769231  0.50000000  0.30769231       0.002
   0.29487179  0.50000000  0.29487179       0.002
   0.28205128  0.50000000  0.28205128       0.002
   0.26923077  0.50000000  0.26923077       0.002
   0.25641026  0.50000000  0.25641026       0.002
   0.24358974  0.50000000  0.24358974       0.002
   0.23076923  0.50000000  0.23076923       0.002
   0.21794872  0.50000000  0.21794872       0.002
   0.20512821  0.50000000  0.20512821       0.002
   0.19230769  0.50000000  0.19230769       0.002
   0.17948718  0.50000000  0.17948718       0.002
   0.16666667  0.50000000  0.16666667       0.002
   0.15384615  0.50000000  0.15384615       0.002
   0.14102564  0.50000000  0.14102564       0.002
   0.12820513  0.50000000  0.12820513       0.002
   0.11538462  0.50000000  0.11538462       0.002
   0.10256410  0.50000000  0.10256410       0.002
   0.08974359  0.50000000  0.08974359       0.002
   0.07692308  0.50000000  0.07692308       0.002
   0.06410256  0.50000000  0.06410256       0.002
   0.05128205  0.50000000  0.05128205       0.002
   0.03846154  0.50000000  0.03846154       0.002
   0.02564103  0.50000000  0.02564103       0.002
   0.01282051  0.50000000  0.01282051       0.002
   0.00000000  0.50000000  0.00000000       0.002
   0.00000000  0.50000000  0.00000000       0.002
   0.01282051  0.50000000  0.00000000       0.002
   0.02564103  0.50000000  0.00000000       0.002
   0.03846154  0.50000000  0.00000000       0.002
   0.05128205  0.50000000  0.00000000       0.002
   0.06410256  0.50000000  0.00000000       0.002
   0.07692308  0.50000000  0.00000000       0.002
   0.08974359  0.50000000  0.00000000       0.002
   0.10256410  0.50000000  0.00000000       0.002
   0.11538462  0.50000000  0.00000000       0.002
   0.12820513  0.50000000  0.00000000       0.002
   0.14102564  0.50000000  0.00000000       0.002
   0.15384615  0.50000000  0.00000000       0.002
   0.16666667  0.50000000  0.00000000       0.002
   0.17948718  0.50000000  0.00000000       0.002
   0.19230769  0.50000000  0.00000000       0.002
   0.20512821  0.50000000  0.00000000       0.002
   0.21794872  0.50000000  0.00000000       0.002
   0.23076923  0.50000000  0.00000000       0.002
   0.24358974  0.50000000  0.00000000       0.002
   0.25641026  0.50000000  0.00000000       0.002
   0.26923077  0.50000000  0.00000000       0.002
   0.28205128  0.50000000  0.00000000       0.002
   0.29487179  0.50000000  0.00000000       0.002
   0.30769231  0.50000000  0.00000000       0.002
   0.32051282  0.50000000  0.00000000       0.002
   0.33333333  0.50000000  0.00000000       0.002
   0.34615385  0.50000000  0.00000000       0.002
   0.35897436  0.50000000  0.00000000       0.002
   0.37179487  0.50000000  0.00000000       0.002
   0.38461538  0.50000000  0.00000000       0.002
   0.39743590  0.50000000  0.00000000       0.002
   0.41025641  0.50000000  0.00000000       0.002
   0.42307692  0.50000000  0.00000000       0.002
   0.43589744  0.50000000  0.00000000       0.002
   0.44871795  0.50000000  0.00000000       0.002
   0.46153846  0.50000000  0.00000000       0.002
   0.47435897  0.50000000  0.00000000       0.002
   0.48717949  0.50000000  0.00000000       0.002
   0.50000000  0.50000000  0.00000000       0.002
   0.50000000  0.50000000  0.00000000       0.002
   0.50000000  0.50000000  0.01282051       0.002
   0.50000000  0.50000000  0.02564103       0.002
   0.50000000  0.50000000  0.03846154       0.002
   0.50000000  0.50000000  0.05128205       0.002
   0.50000000  0.50000000  0.06410256       0.002
   0.50000000  0.50000000  0.07692308       0.002
   0.50000000  0.50000000  0.08974359       0.002
   0.50000000  0.50000000  0.10256410       0.002
   0.50000000  0.50000000  0.11538462       0.002
   0.50000000  0.50000000  0.12820513       0.002
   0.50000000  0.50000000  0.14102564       0.002
   0.50000000  0.50000000  0.15384615       0.002
   0.50000000  0.50000000  0.16666667       0.002
   0.50000000  0.50000000  0.17948718       0.002
   0.50000000  0.50000000  0.19230769       0.002
   0.50000000  0.50000000  0.20512821       0.002
   0.50000000  0.50000000  0.21794872       0.002
   0.50000000  0.50000000  0.23076923       0.002
   0.50000000  0.50000000  0.24358974       0.002
   0.50000000  0.50000000  0.25641026       0.002
   0.50000000  0.50000000  0.26923077       0.002
   0.50000000  0.50000000  0.28205128       0.002
   0.50000000  0.50000000  0.29487179       0.002
   0.50000000  0.50000000  0.30769231       0.002
   0.50000000  0.50000000  0.32051282       0.002
   0.50000000  0.50000000  0.33333333       0.002
   0.50000000  0.50000000  0.34615385       0.002
   0.50000000  0.50000000  0.35897436       0.002
   0.50000000  0.50000000  0.37179487       0.002
   0.50000000  0.50000000  0.38461538       0.002
   0.50000000  0.50000000  0.39743590       0.002
   0.50000000  0.50000000  0.41025641       0.002
   0.50000000  0.50000000  0.42307692       0.002
   0.50000000  0.50000000  0.43589744       0.002
   0.50000000  0.50000000  0.44871795       0.002
   0.50000000  0.50000000  0.46153846       0.002
   0.50000000  0.50000000  0.47435897       0.002
   0.50000000  0.50000000  0.48717949       0.002
   0.50000000  0.50000000  0.50000000       0.002
   0.50000000  0.50000000  0.50000000       0.002
   0.50000000  0.48717949  0.48717949       0.002
   0.50000000  0.47435897  0.47435897       0.002
   0.50000000  0.46153846  0.46153846       0.002
   0.50000000  0.44871795  0.44871795       0.002
   0.50000000  0.43589744  0.43589744       0.002
   0.50000000  0.42307692  0.42307692       0.002
   0.50000000  0.41025641  0.41025641       0.002
   0.50000000  0.39743590  0.39743590       0.002
   0.50000000  0.38461538  0.38461538       0.002
   0.50000000  0.37179487  0.37179487       0.002
   0.50000000  0.35897436  0.35897436       0.002
   0.50000000  0.34615385  0.34615385       0.002
   0.50000000  0.33333333  0.33333333       0.002
   0.50000000  0.32051282  0.32051282       0.002
   0.50000000  0.30769231  0.30769231       0.002
   0.50000000  0.29487179  0.29487179       0.002
   0.50000000  0.28205128  0.28205128       0.002
   0.50000000  0.26923077  0.26923077       0.002
   0.50000000  0.25641026  0.25641026       0.002
   0.50000000  0.24358974  0.24358974       0.002
   0.50000000  0.23076923  0.23076923       0.002
   0.50000000  0.21794872  0.21794872       0.002
   0.50000000  0.20512821  0.20512821       0.002
   0.50000000  0.19230769  0.19230769       0.002
   0.50000000  0.17948718  0.17948718       0.002
   0.50000000  0.16666667  0.16666667       0.002
   0.50000000  0.15384615  0.15384615       0.002
   0.50000000  0.14102564  0.14102564       0.002
   0.50000000  0.12820513  0.12820513       0.002
   0.50000000  0.11538462  0.11538462       0.002
   0.50000000  0.10256410  0.10256410       0.002
   0.50000000  0.08974359  0.08974359       0.002
   0.50000000  0.07692308  0.07692308       0.002
   0.50000000  0.06410256  0.06410256       0.002
   0.50000000  0.05128205  0.05128205       0.002
   0.50000000  0.03846154  0.03846154       0.002
   0.50000000  0.02564103  0.02564103       0.002
   0.50000000  0.01282051  0.01282051       0.002
   0.50000000  0.00000000  0.00000000       0.002
   0.50000000  0.00000000  0.00000000       0.002
   0.48717949  0.00000000  0.00000000       0.002
   0.47435897  0.00000000  0.00000000       0.002
   0.46153846  0.00000000  0.00000000       0.002
   0.44871795  0.00000000  0.00000000       0.002
   0.43589744  0.00000000  0.00000000       0.002
   0.42307692  0.00000000  0.00000000       0.002
   0.41025641  0.00000000  0.00000000       0.002
   0.39743590  0.00000000  0.00000000       0.002
   0.38461538  0.00000000  0.00000000       0.002
   0.37179487  0.00000000  0.00000000       0.002
   0.35897436  0.00000000  0.00000000       0.002
   0.34615385  0.00000000  0.00000000       0.002
   0.33333333  0.00000000  0.00000000       0.002
   0.32051282  0.00000000  0.00000000       0.002
   0.30769231  0.00000000  0.00000000       0.002
   0.29487179  0.00000000  0.00000000       0.002
   0.28205128  0.00000000  0.00000000       0.002
   0.26923077  0.00000000  0.00000000       0.002
   0.25641026  0.00000000  0.00000000       0.002
   0.24358974  0.00000000  0.00000000       0.002
   0.23076923  0.00000000  0.00000000       0.002
   0.21794872  0.00000000  0.00000000       0.002
   0.20512821  0.00000000  0.00000000       0.002
   0.19230769  0.00000000  0.00000000       0.002
   0.17948718  0.00000000  0.00000000       0.002
   0.16666667  0.00000000  0.00000000       0.002
   0.15384615  0.00000000  0.00000000       0.002
   0.14102564  0.00000000  0.00000000       0.002
   0.12820513  0.00000000  0.00000000       0.002
   0.11538462  0.00000000  0.00000000       0.002
   0.10256410  0.00000000  0.00000000       0.002
   0.08974359  0.00000000  0.00000000       0.002
   0.07692308  0.00000000  0.00000000       0.002
   0.06410256  0.00000000  0.00000000       0.002
   0.05128205  0.00000000  0.00000000       0.002
   0.03846154  0.00000000  0.00000000       0.002
   0.02564103  0.00000000  0.00000000       0.002
   0.01282051  0.00000000  0.00000000       0.002
   0.00000000  0.00000000  0.00000000       0.002
   0.00000000  0.00000000  0.00000000       0.002
   0.01282051  0.01282051  0.01282051       0.002
   0.02564103  0.02564103  0.02564103       0.002
   0.03846154  0.03846154  0.03846154       0.002
   0.05128205  0.05128205  0.05128205       0.002
   0.06410256  0.06410256  0.06410256       0.002
   0.07692308  0.07692308  0.07692308       0.002
   0.08974359  0.08974359  0.08974359       0.002
   0.10256410  0.10256410  0.10256410       0.002
   0.11538462  0.11538462  0.11538462       0.002
   0.12820513  0.12820513  0.12820513       0.002
   0.14102564  0.14102564  0.14102564       0.002
   0.15384615  0.15384615  0.15384615       0.002
   0.16666667  0.16666667  0.16666667       0.002
   0.17948718  0.17948718  0.17948718       0.002
   0.19230769  0.19230769  0.19230769       0.002
   0.20512821  0.20512821  0.20512821       0.002
   0.21794872  0.21794872  0.21794872       0.002
   0.23076923  0.23076923  0.23076923       0.002
   0.24358974  0.24358974  0.24358974       0.002
   0.25641026  0.25641026  0.25641026       0.002
   0.26923077  0.26923077  0.26923077       0.002
   0.28205128  0.28205128  0.28205128       0.002
   0.29487179  0.29487179  0.29487179       0.002
   0.30769231  0.30769231  0.30769231       0.002
   0.32051282  0.32051282  0.32051282       0.002
   0.33333333  0.33333333  0.33333333       0.002
   0.34615385  0.34615385  0.34615385       0.002
   0.35897436  0.35897436  0.35897436       0.002
   0.37179487  0.37179487  0.37179487       0.002
   0.38461538  0.38461538  0.38461538       0.002
   0.39743590  0.39743590  0.39743590       0.002
   0.41025641  0.41025641  0.41025641       0.002
   0.42307692  0.42307692  0.42307692       0.002
   0.43589744  0.43589744  0.43589744       0.002
   0.44871795  0.44871795  0.44871795       0.002
   0.46153846  0.46153846  0.46153846       0.002
   0.47435897  0.47435897  0.47435897       0.002
   0.48717949  0.48717949  0.48717949       0.002
   0.50000000  0.50000000  0.50000000       0.002
   0.50000000  0.50000000  0.50000000       0.002
   0.50000000  0.48717949  0.50000000       0.002
   0.50000000  0.47435897  0.50000000       0.002
   0.50000000  0.46153846  0.50000000       0.002
   0.50000000  0.44871795  0.50000000       0.002
   0.50000000  0.43589744  0.50000000       0.002
   0.50000000  0.42307692  0.50000000       0.002
   0.50000000  0.41025641  0.50000000       0.002
   0.50000000  0.39743590  0.50000000       0.002
   0.50000000  0.38461538  0.50000000       0.002
   0.50000000  0.37179487  0.50000000       0.002
   0.50000000  0.35897436  0.50000000       0.002
   0.50000000  0.34615385  0.50000000       0.002
   0.50000000  0.33333333  0.50000000       0.002
   0.50000000  0.32051282  0.50000000       0.002
   0.50000000  0.30769231  0.50000000       0.002
   0.50000000  0.29487179  0.50000000       0.002
   0.50000000  0.28205128  0.50000000       0.002
   0.50000000  0.26923077  0.50000000       0.002
   0.50000000  0.25641026  0.50000000       0.002
   0.50000000  0.24358974  0.50000000       0.002
   0.50000000  0.23076923  0.50000000       0.002
   0.50000000  0.21794872  0.50000000       0.002
   0.50000000  0.20512821  0.50000000       0.002
   0.50000000  0.19230769  0.50000000       0.002
   0.50000000  0.17948718  0.50000000       0.002
   0.50000000  0.16666667  0.50000000       0.002
   0.50000000  0.15384615  0.50000000       0.002
   0.50000000  0.14102564  0.50000000       0.002
   0.50000000  0.12820513  0.50000000       0.002
   0.50000000  0.11538462  0.50000000       0.002
   0.50000000  0.10256410  0.50000000       0.002
   0.50000000  0.08974359  0.50000000       0.002
   0.50000000  0.07692308  0.50000000       0.002
   0.50000000  0.06410256  0.50000000       0.002
   0.50000000  0.05128205  0.50000000       0.002
   0.50000000  0.03846154  0.50000000       0.002
   0.50000000  0.02564103  0.50000000       0.002
[...]
     27       3.3407      0.00000
     28       6.3065      0.00000
     29       6.4358      0.00000
     30       6.8495      0.00000
     31       7.1216      0.00000
     32       7.4934      0.00000
     33       8.0186      0.00000
     34       8.1089      0.00000
     35       8.3880      0.00000
     36       8.6297      0.00000
     37       8.8320      0.00000
     38       8.9998      0.00000
     39       9.3314      0.00000
     40       9.5085      0.00000
     41       9.9919      0.00000
     42      10.1909      0.00000
     43      10.5456      0.00000
     44      10.8347      0.00000
     45      11.2224      0.00000
     46      11.6431      0.00000
     47      12.2519      0.00000
     48      12.2913      0.00000

 k-point   438 :       0.5000    0.0256    0.5000
  band No.  band energies     occupation 
      1     -17.6950      1.00000
      2     -15.2934      1.00000
      3     -15.2539      1.00000
      4     -15.2360      1.00000
      5     -15.1941      1.00000
      6     -15.1829      1.00000
      7     -11.1414      1.00000
      8     -10.9301      1.00000
      9     -10.6001      1.00000
     10     -10.3478      1.00000
     11      -7.4429      1.00000
     12      -6.9744      1.00000
     13      -6.6219      1.00000
     14      -5.3594      1.00000
     15      -3.0504      1.00000
     16      -2.8304      1.00000
     17      -1.5358      1.00000
     18      -0.8512      1.00000
     19      -0.6133      1.00000
     20      -0.3895      1.00000
     21      -0.2146      1.00000
     22      -0.0640      1.00000
     23       0.1208      1.00000
     24       0.8401      0.99189
     25       1.3521      0.11179
     26       3.3033      0.00000
     27       3.3434      0.00000
     28       6.3317      0.00000
     29       6.4328      0.00000
     30       6.8889      0.00000
     31       7.0824      0.00000
     32       7.4989      0.00000
     33       8.0171      0.00000
     34       8.1015      0.00000
     35       8.3852      0.00000
     36       8.6250      0.00000
     37       8.8291      0.00000
     38       8.9974      0.00000
     39       9.3375      0.00000
     40       9.5178      0.00000
     41       9.9820      0.00000
     42      10.2012      0.00000
     43      10.5529      0.00000
     44      10.8120      0.00000
     45      11.2246      0.00000
     46      11.6426      0.00000
     47      12.2224      0.00000
     48      12.3226      0.00000

 k-point   439 :       0.5000    0.0128    0.5000
  band No.  band energies     occupation 
      1     -17.6950      1.00000
      2     -15.2934      1.00000
      3     -15.2539      1.00000
      4     -15.2360      1.00000
      5     -15.1941      1.00000
      6     -15.1829      1.00000
      7     -11.1416      1.00000
      8     -10.9303      1.00000
      9     -10.5998      1.00000
     10     -10.3480      1.00000
     11      -7.4434      1.00000
     12      -6.9743      1.00000
     13      -6.6188      1.00000
     14      -5.3594      1.00000
     15      -3.0509      1.00000
     16      -2.8303      1.00000
     17      -1.5435      1.00000
     18      -0.8519      1.00000
     19      -0.6081      1.00000
     20      -0.3836      1.00000
     21      -0.2212      1.00000
     22      -0.0689      1.00000
     23       0.1204      1.00000
     24       0.8398      0.99193
     25       1.3524      0.11143
     26       3.3050      0.00000
     27       3.3451      0.00000
     28       6.3473      0.00000
     29       6.4304      0.00000
     30       6.9244      0.00000
     31       7.0470      0.00000
     32       7.5024      0.00000
     33       8.0161      0.00000
     34       8.0969      0.00000
     35       8.3837      0.00000
     36       8.6220      0.00000
     37       8.8271      0.00000
     38       8.9959      0.00000
     39       9.3415      0.00000
     40       9.5236      0.00000
     41       9.9757      0.00000
     42      10.2078      0.00000
     43      10.5583      0.00000
     44      10.7968      0.00000
     45      11.2272      0.00000
     46      11.6413      0.00000
     47      12.1999      0.00000
     48      12.3722      0.00000

 k-point   440 :       0.5000    0.0000    0.5000
  band No.  band energies     occupation 
      1     -17.6951      1.00000
      2     -15.2933      1.00000
      3     -15.2539      1.00000
      4     -15.2361      1.00000
      5     -15.1941      1.00000
      6     -15.1829      1.00000
      7     -11.1416      1.00000
      8     -10.9303      1.00000
      9     -10.5996      1.00000
     10     -10.3481      1.00000
     11      -7.4438      1.00000
     12      -6.9743      1.00000
     13      -6.6177      1.00000
     14      -5.3594      1.00000
     15      -3.0513      1.00000
     16      -2.8303      1.00000
     17      -1.5461      1.00000
     18      -0.8521      1.00000
     19      -0.6063      1.00000
     20      -0.3815      1.00000
     21      -0.2235      1.00000
     22      -0.0706      1.00000
     23       0.1203      1.00000
     24       0.8397      0.99194
     25       1.3525      0.11132
     26       3.3055      0.00000
     27       3.3456      0.00000
     28       6.3527      0.00000
     29       6.4294      0.00000
     30       6.9424      0.00000
     31       7.0290      0.00000
     32       7.5036      0.00000
     33       8.0158      0.00000
     34       8.0954      0.00000
     35       8.3831      0.00000
     36       8.6210      0.00000
     37       8.8264      0.00000
     38       8.9954      0.00000
     39       9.3429      0.00000
     40       9.5256      0.00000
     41       9.9735      0.00000
     42      10.2101      0.00000
     43      10.5603      0.00000
     44      10.7914      0.00000
     45      11.2282      0.00000
     46      11.6408      0.00000
     47      12.1886      0.00000
     48      12.3894      0.00000


--------------------------------------------------------------------------------------------------------


 soft charge-density along one line, spin component           1
         0         1         2         3         4         5         6         7         8         9
 total charge-density along one line
 
 soft charge-density along one line, spin component           2
         0         1         2         3         4         5         6         7         8         9
 total charge-density along one line
 
 pseudopotential strength for first ion, spin component:           1
 10.398   0.000  13.941   0.000   0.000   0.000   0.000   0.000   0.008   0.000  -0.000   0.000  -0.001   0.000  -0.028   0.000
 13.941   0.000  18.692   0.000   0.000   0.000   0.000   0.000   0.011   0.000  -0.000   0.000  -0.001   0.000  -0.037   0.000
  0.000   0.000   0.000   0.000  -3.961   0.000  -0.000   0.000   0.000   0.000   7.620   0.000   0.000   0.000  -0.000   0.000
  0.000   0.000   0.000   0.000  -0.000   0.000  -3.962   0.000  -0.003   0.000   0.000   0.000   7.620   0.000   0.005   0.000
  0.008   0.000   0.011   0.000   0.000   0.000  -0.003   0.000  -3.977   0.000  -0.000   0.000   0.005   0.000   7.651   0.000
 -0.000   0.000  -0.000   0.000   7.620   0.000   0.000   0.000  -0.000   0.000 -17.579   0.000  -0.000   0.000   0.000   0.000
 -0.001   0.000  -0.001   0.000   0.000   0.000   7.620   0.000   0.005   0.000  -0.000   0.000 -17.580   0.000  -0.010   0.000
 -0.028   0.000  -0.037   0.000  -0.000   0.000   0.005   0.000   7.651   0.000   0.000   0.000  -0.010   0.000 -17.644   0.000
 pseudopotential strength for first ion, spin component:           2
 10.397   0.000  13.941   0.000   0.000   0.000   0.000   0.000   0.008   0.000  -0.000   0.000  -0.001   0.000  -0.027   0.000
 13.941   0.000  18.692   0.000   0.000   0.000   0.000   0.000   0.011   0.000  -0.000   0.000  -0.001   0.000  -0.036   0.000
  0.000   0.000   0.000   0.000  -3.961   0.000  -0.000   0.000   0.000   0.000   7.620   0.000   0.000   0.000  -0.000   0.000
  0.000   0.000   0.000   0.000  -0.000   0.000  -3.961   0.000  -0.003   0.000   0.000   0.000   7.620   0.000   0.005   0.000
  0.008   0.000   0.011   0.000   0.000   0.000  -0.003   0.000  -3.977   0.000  -0.000   0.000   0.005   0.000   7.651   0.000
 -0.000   0.000  -0.000   0.000   7.620   0.000   0.000   0.000  -0.000   0.000 -17.578   0.000  -0.000   0.000   0.000   0.000
 -0.001   0.000  -0.001   0.000   0.000   0.000   7.620   0.000   0.005   0.000  -0.000   0.000 -17.580   0.000  -0.010   0.000
 -0.027   0.000  -0.036   0.000  -0.000   0.000   0.005   0.000   7.651   0.000   0.000   0.000  -0.010   0.000 -17.644   0.000
 total augmentation occupancy for first ion, spin component:           1
  2.000   0.000   0.000   0.000   0.000   0.000   0.000   0.000
  0.000   0.000   0.000   0.000   0.000   0.000   0.000   0.000
  0.000   0.000   0.667   0.000   0.000   0.000   0.000   0.000
  0.000   0.000   0.000   0.667   0.000   0.000   0.000   0.000
  0.000   0.000   0.000   0.000   0.667   0.000   0.000   0.000
  0.000   0.000   0.000   0.000   0.000   0.000   0.000   0.000
  0.000   0.000   0.000   0.000   0.000   0.000   0.000   0.000
  0.000   0.000   0.000   0.000   0.000   0.000   0.000   0.000
 total augmentation occupancy for first ion, spin component:           2
  0.500   0.000   0.000   0.000   0.000   0.000   0.000   0.000
  0.000   0.000   0.000   0.000   0.000   0.000   0.000   0.000
  0.000   0.000   0.167   0.000   0.000   0.000   0.000   0.000
  0.000   0.000   0.000   0.167   0.000   0.000   0.000   0.000
  0.000   0.000   0.000   0.000   0.167   0.000   0.000   0.000
  0.000   0.000   0.000   0.000   0.000   0.000   0.000   0.000
  0.000   0.000   0.000   0.000   0.000   0.000   0.000   0.000
  0.000   0.000   0.000   0.000   0.000   0.000   0.000   0.000


------------------------ aborting loop because EDIFF is reached ----------------------------------------


 


 total charge     
 
# of ion     s       p       d       tot
----------------------------------------
  1        0.828   1.770   0.000   2.598
  2        1.221   2.747   0.000   3.968
  3        0.613   0.043   0.000   0.656
  4        0.610   0.042   0.000   0.652
  5        0.610   0.042   0.000   0.652
  6        0.589   0.074   0.000   0.663
  7        0.589   0.074   0.000   0.663
  8        0.587   0.074   0.000   0.661
  9        1.418   0.426   9.843  11.687
 10        1.522   2.749   0.009   4.279
 11        1.508   2.607   0.007   4.122
 12        1.526   2.731   0.008   4.265
------------------------------------------------
tot       11.621  13.378   9.866  34.865
 


 magnetization (x)
 
# of ion     s       p       d       tot
----------------------------------------
  1       -0.000  -0.001   0.000  -0.001
  2       -0.000  -0.000   0.000  -0.001
  3       -0.000  -0.000   0.000  -0.000
  4        0.000  -0.000   0.000   0.000
  5        0.000  -0.000   0.000   0.000
  6       -0.000  -0.000   0.000  -0.000
  7       -0.000  -0.000   0.000  -0.000
  8       -0.000  -0.000   0.000  -0.000
  9        0.035  -0.025   0.001   0.011
 10        0.005   0.241  -0.000   0.246
 11        0.001   0.042  -0.000   0.043
 12        0.006   0.325  -0.000   0.330
------------------------------------------------
tot        0.046   0.581   0.001   0.628
 
    CHARGE:  cpu time    1.25: real time    1.25
    FORLOC:  cpu time    0.00: real time    0.00
    FORNL :  cpu time    7.15: real time    7.16
    STRESS:  cpu time   21.47: real time   21.50
    FORCOR:  cpu time    0.03: real time    0.03
    FORHAR:  cpu time    0.01: real time    0.01
    OFIELD:  cpu time    0.00: real time    0.00

  FORCE on cell =-STRESS in cart. coord.  units (eV):
  Direction    XX          YY          ZZ          XY          YZ          ZX
  --------------------------------------------------------------------------------------
  Alpha Z    42.87890    42.87890    42.87890
  Ewald    -641.02579  -614.94441  -682.12677    -0.05670    -0.07702    26.41830
  Hartree   345.67707   361.27333   332.22437    -0.05769    -0.00688    13.98789
  E(xc)    -194.10133  -194.09611  -194.06774     0.00482     0.00958    -0.19347
  Local    -605.92138  -638.94637  -550.05655     0.20835     0.27494   -43.73052
  n-local   450.81065   447.87700   447.27334    -0.07112    -0.12891     3.63587
  augment    12.49578    12.51368    13.12759     0.01621     0.03910    -1.33978
  Kinetic   577.25482   577.64142   579.20843    -0.10320    -0.26450     1.67474
  Fock        0.00000     0.00000     0.00000     0.00000     0.00000     0.00000
  -------------------------------------------------------------------------------------
  Total     -11.93128    -5.80255   -11.53843    -0.05933    -0.15369     0.45302
  in kB     -76.92616   -37.41158   -74.39329    -0.38252    -0.99089     2.92083
  external pressure =      -62.91 kB  Pullay stress =        0.00 kB


 VOLUME and BASIS-vectors are now :
 -----------------------------------------------------------------------------
  energy-cutoff  :      400.00
  volume of cell :      248.50
      direct lattice vectors                 reciprocal lattice vectors
     6.290120125  0.000000000  0.000000000     0.158979476 -0.000001969  0.001001495
     0.000077694  6.273890018  0.000000000     0.000000000  0.159390744  0.000003893
    -0.039667571 -0.000153793  6.296915042     0.000000000  0.000000000  0.158807923

  length of vectors
     6.290120125  6.273890018  6.297039986     0.158982630  0.159390744  0.158807923


 FORCES acting on ions
    electron-ion (+dipol)            ewald-force                    non-local-force                 convergence-correction
 -----------------------------------------------------------------------------------------------
   0.943E+02 -.549E-01 0.171E+02   -.102E+03 0.667E-01 -.186E+02   0.797E+01 -.887E-02 0.927E+00   -.501E+00 -.894E-02 0.472E+00
   -.438E+02 0.318E-02 0.665E+01   0.418E+02 -.868E-01 -.772E+01   0.112E+01 0.493E-02 0.111E+01   0.983E+00 0.729E-01 0.207E+00
   0.174E+02 0.566E-01 0.492E+02   -.185E+02 -.611E-01 -.542E+02   0.133E+01 0.684E-02 0.524E+01   -.144E+00 -.186E-02 -.115E+00
   0.262E+02 -.382E+02 -.168E+02   -.281E+02 0.426E+02 0.189E+02   0.217E+01 -.431E+01 -.224E+01   -.147E+00 -.233E+00 0.850E-01
   0.263E+02 0.381E+02 -.169E+02   -.282E+02 -.425E+02 0.190E+02   0.218E+01 0.430E+01 -.226E+01   -.148E+00 0.233E+00 0.827E-01
   -.273E+02 -.483E+02 0.262E+02   0.302E+02 0.540E+02 -.290E+02   -.289E+01 -.540E+01 0.246E+01   0.111E+00 -.293E+00 0.428E-02
   -.272E+02 0.484E+02 0.261E+02   0.301E+02 -.541E+02 -.288E+02   -.288E+01 0.541E+01 0.245E+01   0.114E+00 0.297E+00 -.564E-03
   -.169E+02 -.749E-01 -.591E+02   0.185E+02 0.721E-01 0.655E+02   -.197E+01 -.770E-02 -.632E+01   0.218E+00 0.634E-02 0.234E+00
   -.569E+02 -.989E-01 -.293E+02   0.639E+02 0.906E-01 0.319E+02   -.381E+01 0.516E-02 -.208E+01   -.248E+01 0.188E-02 -.305E+00
   -.144E+02 0.109E+00 0.199E+02   0.115E+02 -.344E-01 -.214E+02   0.128E+01 -.387E-01 0.105E+01   0.107E+01 -.218E-01 0.573E+00
   -.191E+02 0.625E-01 -.157E+02   0.173E+02 -.605E-01 0.176E+02   0.109E+01 -.403E-03 -.106E+01   0.514E+00 -.288E-02 -.665E+00
   0.338E+02 -.745E-02 -.853E+01   -.363E+02 -.163E-01 0.676E+01   0.136E+01 0.120E-01 0.608E+00   0.112E+01 0.631E-02 0.610E+00
 -----------------------------------------------------------------------------------------------
   -.769E+01 -.303E-01 -.122E+01   0.782E-13 -.212E-13 0.169E-13   0.697E+01 -.312E-01 -.105E+00   0.709E+00 0.565E-01 0.118E+01
 
 
 POSITION                                       TOTAL-FORCE (eV/Angst)
 -----------------------------------------------------------------------------------
      5.63546      6.27372      6.26939        -0.229888     -0.005535     -0.145037
      0.84009      6.27282      0.14343         0.030346     -0.005374      0.260141
      5.39264      6.27233      5.18684         0.054719      0.000852      0.213893
      5.25036      0.91104      0.44558         0.075013     -0.191189     -0.037625
      5.24889      5.36505      0.44845         0.077608      0.205724     -0.040379
      1.25492      0.85375      6.04643         0.065932     -0.047860     -0.277868
      1.25378      5.41567      6.04867         0.062397      0.039846     -0.270022
      1.14438      0.00004      1.14477        -0.125793     -0.003752      0.330002
      2.99776      3.13728      3.04923         0.653560     -0.000845      0.201625
      2.47750      3.13513      6.24021        -0.530157      0.014063      0.124062
      2.79046      0.00058      3.22320        -0.179011     -0.000868      0.184013
      6.20385      3.13752      2.65723         0.045274     -0.005061     -0.542806
 -----------------------------------------------------------------------------------
    total drift:                               -0.016785     -0.005052     -0.146362


--------------------------------------------------------------------------------------------------------



  FREE ENERGIE OF THE ION-ELECTRON SYSTEM (eV)
  ---------------------------------------------------
  free  energy   TOTEN  =       -36.47302079 eV

  energy  without entropy=      -36.40353937  energy(sigma->0) =      -36.43828008
 


--------------------------------------------------------------------------------------------------------


    POTLOK:  cpu time    0.54: real time    0.54


--------------------------------------------------------------------------------------------------------


 writing wavefunctions
     LOOP+:  cpu time 1076.60: real time 1082.59
    4ORBIT:  cpu time    0.00: real time    0.00
 


 total charge     
 
# of ion     s       p       d       tot
----------------------------------------
  1        0.828   1.770   0.000   2.598
  2        1.221   2.747   0.000   3.968
  3        0.613   0.043   0.000   0.656
  4        0.610   0.042   0.000   0.652
  5        0.610   0.042   0.000   0.652
  6        0.589   0.074   0.000   0.663
  7        0.589   0.074   0.000   0.663
  8        0.587   0.074   0.000   0.661
  9        1.418   0.426   9.843  11.687
 10        1.522   2.749   0.009   4.279
 11        1.508   2.607   0.007   4.122
 12        1.526   2.731   0.008   4.265
------------------------------------------------
tot       11.621  13.378   9.866  34.865
 


 magnetization (x)
 
# of ion     s       p       d       tot
----------------------------------------
  1       -0.000  -0.001   0.000  -0.001
  2       -0.000  -0.000   0.000  -0.001
  3       -0.000  -0.000   0.000  -0.000
  4        0.000  -0.000   0.000   0.000
  5        0.000  -0.000   0.000   0.000
  6       -0.000  -0.000   0.000  -0.000
  7       -0.000  -0.000   0.000  -0.000
  8       -0.000  -0.000   0.000  -0.000
  9        0.035  -0.025   0.001   0.011
 10        0.005   0.241  -0.000   0.246
 11        0.001   0.042  -0.000   0.043
 12        0.006   0.325  -0.000   0.330
------------------------------------------------
tot        0.046   0.581   0.001   0.628
 

 total amount of memory used by VASP on root node    55536. kBytes
========================================================================

   base      :      30000. kBytes
   nonlr-proj:        482. kBytes
   fftplans  :        386. kBytes
   grid      :        983. kBytes
   one-center:         31. kBytes
   wavefun   :      23654. kBytes
 
  
  
 General timing and accounting informations for this job:
 ========================================================
  
                  Total CPU time used (sec):     1181.584
                            User time (sec):      275.206
                          System time (sec):      906.378
                         Elapsed time (sec):     1188.789
  
                   Maximum memory used (kb):      121328.
                   Average memory used (kb):           0.
  
                          Minor page faults:        12482
                          Major page faults:           10
                 Voluntary context switches:         6444
